********************************************************************************
*                       GENERAL UTILITY LATTICE PROGRAM                        *
*                                 Julian Gale                                  *
*                       Curtin Institute for Computation                       *
*                    School of Molecular and Life Sciences                     *
*                    Curtin University, Western Australia                      *
********************************************************************************
* Version = 6.1.2 * Last modified =   3rd November 2022                        *
********************************************************************************
*  optimise     - perform optimisation run                                     *
*  conp         - constant pressure calculation                                *
*  property     - calculate properties for final geometry                      *
*  phonon       - calculate phonons for final geometry                         *
*  nosymmetry   - turn off symmetry after initial structure generation         *
*  full         - generate full unit cell when symmetry is removed             *
*  distance     - calculate distances                                          *
*  compare      - compare initial and final structures                         *
********************************************************************************

  Job Started  at 16:53.09 21st November   2023                               

  Number of CPUs =     4

  Host name      = nid001027                               


  Total number of configurations input =      1

********************************************************************************
*  Input for Configuration =   1                                               *
********************************************************************************

  Formula = Tc12Mn12Li12O48                                             

  Number of irreducible atoms/shells =     144


  Total number atoms/shells =     144

  Dimensionality = 3               :  Bulk   



  Cartesian lattice vectors (Angstroms) :

        8.872874    0.000000    0.000000
        0.000000    9.432501    0.000000
        0.000000    0.000000    8.565761

  Cell parameters (Angstroms/Degrees):

  a =       8.8729    alpha =  90.0000
  b =       9.4325    beta  =  90.0000
  c =       8.5658    gamma =  90.0000

  Initial cell volume =         716.897611 Angs**3

  Temperature of configuration =   0.00     K 

  Pressure of configuration =         0.000 GPa 

  Fractional coordinates of asymmetric unit :

--------------------------------------------------------------------------------
   No.  Atomic       x           y          z         Charge      Occupancy
        Label      (Frac)      (Frac)     (Frac)        (e)         (Frac)  
--------------------------------------------------------------------------------
      1 Tc    c    0.615088 *  0.750234 *  0.095228 *   1.97100    1.000000    
      2 Tc    c    0.327812 *  0.774863 *  0.591821 *   1.97100    1.000000    
      3 Tc    c    0.615638 *  0.750984 *  0.427791 *   1.97100    1.000000    
      4 Tc    c    0.123381 *  0.033823 *  0.760535 *   1.97100    1.000000    
      5 Tc    c    0.591588 *  0.725809 *  0.761582 *   1.97100    1.000000    
      6 Tc    c    0.319339 *  0.286572 *  0.265297 *   1.97100    1.000000    
      7 Tc    c    0.608533 *  0.250163 *  0.430209 *   1.97100    1.000000    
      8 Tc    c    0.609566 *  0.247590 *  0.094671 *   1.97100    1.000000    
      9 Tc    c    0.818526 *  0.020646 *  0.258872 *   1.97100    1.000000    
     10 Tc    c    0.322369 *  0.296777 *  0.599599 *   1.97100    1.000000    
     11 Tc    c    0.321532 *  0.782322 *  0.260384 *   1.97100    1.000000    
     12 Tc    c    0.326510 *  0.776024 *  0.928928 *   1.97100    1.000000    
     13 Mn    c    0.826116 *  0.489673 *  0.592992 *   4.00000    1.000000    
     14 Mn    c    0.827105 *  0.487722 *  0.929217 *   4.00000    1.000000    
     15 Mn    c    0.095068 *  0.049991 *  0.423849 *   4.00000    1.000000    
     16 Mn    c    0.094364 *  0.049547 *  0.091808 *   4.00000    1.000000    
     17 Mn    c    0.100191 *  0.533702 *  0.426935 *   4.00000    1.000000    
     18 Mn    c    0.103281 *  0.527874 *  0.095337 *   4.00000    1.000000    
     19 Mn    c    0.823859 *  0.999293 *  0.924847 *   4.00000    1.000000    
     20 Mn    c    0.322081 *  0.289322 *  0.923284 *   4.00000    1.000000    
     21 Mn    c    0.601864 *  0.259373 *  0.762318 *   4.00000    1.000000    
     22 Mn    c    0.825396 *  0.001305 *  0.593752 *   4.00000    1.000000    
     23 Mn    c    0.108336 *  0.537717 *  0.760818 *   4.00000    1.000000    
     24 Mn    c    0.826925 *  0.481198 *  0.260712 *   4.00000    1.000000    
     25 Li    c    0.041228 *  0.790693 *  0.983089 *   1.00000    1.000000    
     26 Li    c    0.378172 *  0.045651 *  0.101848 *   1.00000    1.000000    
     27 Li    c    0.541009 *  0.975329 *  0.268595 *   1.00000    1.000000    
     28 Li    c    0.457253 *  0.533288 *  0.085443 *   1.00000    1.000000    
     29 Li    c    0.532003 *  0.986336 *  0.632661 *   1.00000    1.000000    
     30 Li    c    0.878365 *  0.746371 *  0.756245 *   1.00000    1.000000    
     31 Li    c    0.464337 *  0.532706 *  0.424045 *   1.00000    1.000000    
     32 Li    c    0.042148 *  0.794185 *  0.539428 *   1.00000    1.000000    
     33 Li    c    0.524679 *  0.983761 *  0.905639 *   1.00000    1.000000    
     34 Li    c    0.952169 *  0.244449 *  0.764519 *   1.00000    1.000000    
     35 Li    c    0.927822 *  0.779673 *  0.260651 *   1.00000    1.000000    
     36 Li    c    0.377205 *  0.045807 *  0.445294 *   1.00000    1.000000    
     37 O     c    0.995709 *  0.142628 *  0.257678 *   0.51300    1.000000    
     38 O     c    0.421318 *  0.365883 *  0.090892 *   0.51300    1.000000    
     39 O     c    0.497337 *  0.152674 *  0.259881 *   0.51300    1.000000    
     40 O     c    0.939655 *  0.399087 *  0.091559 *   0.51300    1.000000    
     41 O     c    0.231240 *  0.188635 *  0.077895 *   0.51300    1.000000    
     42 O     c    0.201394 *  0.452779 *  0.263619 *   0.51300    1.000000    
     43 O     c    0.707734 *  0.075322 *  0.077321 *   0.51300    1.000000    
     44 O     c    0.716277 *  0.326460 *  0.260378 *   0.51300    1.000000    
     45 O     c    0.988784 *  0.613426 *  0.258920 *   0.51300    1.000000    
     46 O     c    0.437755 *  0.877015 *  0.095509 *   0.51300    1.000000    
     47 O     c    0.494680 *  0.657463 *  0.260055 *   0.51300    1.000000    
     48 O     c    0.933978 *  0.913483 *  0.090581 *   0.51300    1.000000    
     49 O     c    0.210638 *  0.687794 *  0.093490 *   0.51300    1.000000    
     50 O     c    0.197776 *  0.961210 *  0.256828 *   0.51300    1.000000    
     51 O     c    0.726992 *  0.569943 *  0.095213 *   0.51300    1.000000    
     52 O     c    0.718990 *  0.841568 *  0.261055 *   0.51300    1.000000    
     53 O     c    0.988512 *  0.129291 *  0.591979 *   0.51300    1.000000    
     54 O     c    0.430347 *  0.366735 *  0.424646 *   0.51300    1.000000    
     55 O     c    0.500450 *  0.164665 *  0.604461 *   0.51300    1.000000    
     56 O     c    0.939373 *  0.401197 *  0.431093 *   0.51300    1.000000    
     57 O     c    0.232170 *  0.186655 *  0.436571 *   0.51300    1.000000    
     58 O     c    0.204857 *  0.462106 *  0.592512 *   0.51300    1.000000    
     59 O     c    0.711119 *  0.077330 *  0.440271 *   0.51300    1.000000    
     60 O     c    0.709950 *  0.338840 *  0.608146 *   0.51300    1.000000    
     61 O     c    0.988010 *  0.621320 *  0.595956 *   0.51300    1.000000    
     62 O     c    0.437326 *  0.876832 *  0.425717 *   0.51300    1.000000    
     63 O     c    0.497837 *  0.651226 *  0.584890 *   0.51300    1.000000    
     64 O     c    0.935420 *  0.914664 *  0.428132 *   0.51300    1.000000    
     65 O     c    0.205291 *  0.695414 *  0.425885 *   0.51300    1.000000    
     66 O     c    0.198941 *  0.944722 *  0.572513 *   0.51300    1.000000    
     67 O     c    0.726261 *  0.570344 *  0.425402 *   0.51300    1.000000    
     68 O     c    0.706855 *  0.845692 *  0.604752 *   0.51300    1.000000    
     69 O     c    0.985374 *  0.127824 *  0.927250 *   0.51300    1.000000    
     70 O     c    0.436266 *  0.385758 *  0.770359 *   0.51300    1.000000    
     71 O     c    0.492647 *  0.164193 *  0.919232 *   0.51300    1.000000    
     72 O     c    0.942329 *  0.416006 *  0.760170 *   0.51300    1.000000    
     73 O     c    0.209892 *  0.212005 *  0.768467 *   0.51300    1.000000    
     74 O     c    0.204039 *  0.449456 *  0.926930 *   0.51300    1.000000    
     75 O     c    0.727400 *  0.096017 *  0.760440 *   0.51300    1.000000    
     76 O     c    0.715161 *  0.333075 *  0.916597 *   0.51300    1.000000    
     77 O     c    0.993274 *  0.616213 *  0.927731 *   0.51300    1.000000    
     78 O     c    0.426649 *  0.872908 *  0.760661 *   0.51300    1.000000    
     79 O     c    0.497423 *  0.652723 *  0.936289 *   0.51300    1.000000    
     80 O     c    0.933170 *  0.915985 *  0.759039 *   0.51300    1.000000    
     81 O     c    0.200461 *  0.706250 *  0.761631 *   0.51300    1.000000    
     82 O     c    0.195083 *  0.940585 *  0.946444 *   0.51300    1.000000    
     83 O     c    0.748780 *  0.588371 *  0.762508 *   0.51300    1.000000    
     84 O     c    0.705902    0.844041    0.916685     0.51300    1.000000    
     85 Tc    s    0.617809 *  0.749751 *  0.094974 *   1.02900    1.000000    
     86 Tc    s    0.324616 *  0.774903 *  0.591524 *   1.02900    1.000000    
     87 Tc    s    0.618218 *  0.750472 *  0.427832 *   1.02900    1.000000    
     88 Tc    s    0.124330 *  0.033169 *  0.760253 *   1.02900    1.000000    
     89 Tc    s    0.595450 *  0.726475 *  0.761290 *   1.02900    1.000000    
     90 Tc    s    0.316040 *  0.285309 *  0.263849 *   1.02900    1.000000    
     91 Tc    s    0.610534 *  0.251181 *  0.430196 *   1.02900    1.000000    
     92 Tc    s    0.610612 *  0.249376 *  0.093841 *   1.02900    1.000000    
     93 Tc    s    0.817376 *  0.021130 *  0.258754 *   1.02900    1.000000    
     94 Tc    s    0.320136 *  0.296496 *  0.599134 *   1.02900    1.000000    
     95 Tc    s    0.317869 *  0.782730 *  0.260256 *   1.02900    1.000000    
     96 Tc    s    0.323635 *  0.776117 *  0.929438 *   1.02900    1.000000    
     97 O     s    0.003508 *  0.111757 *  0.257397 *  -2.51300    1.000000    
     98 O     s    0.413786 *  0.353196 *  0.084571 *  -2.51300    1.000000    
     99 O     s    0.500848 *  0.160493 *  0.258333 *  -2.51300    1.000000    
    100 O     s    0.935169 *  0.431341 *  0.090802 *  -2.51300    1.000000    
    101 O     s    0.232610 *  0.183616 *  0.072705 *  -2.51300    1.000000    
    102 O     s    0.186060 *  0.456830 *  0.262657 *  -2.51300    1.000000    
    103 O     s    0.721657 *  0.077067 *  0.074433 *  -2.51300    1.000000    
    104 O     s    0.713316 *  0.336829 *  0.259752 *  -2.51300    1.000000    
    105 O     s    0.990383 *  0.595078 *  0.260201 *  -2.51300    1.000000    
    106 O     s    0.433962 *  0.869764 *  0.096791 *  -2.51300    1.000000    
    107 O     s    0.495516 *  0.671222 *  0.260259 *  -2.51300    1.000000    
    108 O     s    0.936833 *  0.931012 *  0.083534 *  -2.51300    1.000000    
    109 O     s    0.209593 *  0.679886 *  0.091339 *  -2.51300    1.000000    
    110 O     s    0.186828 *  0.968273 *  0.255990 *  -2.51300    1.000000    
    111 O     s    0.741967 *  0.563885 *  0.093232 *  -2.51300    1.000000    
    112 O     s    0.710915 *  0.841145 *  0.261042 *  -2.51300    1.000000    
    113 O     s    0.987819 *  0.105283 *  0.588288 *  -2.51300    1.000000    
    114 O     s    0.426071 *  0.355435 *  0.424475 *  -2.51300    1.000000    
    115 O     s    0.509117 *  0.178416 *  0.608809 *  -2.51300    1.000000    
    116 O     s    0.933908 *  0.433409 *  0.431528 *  -2.51300    1.000000    
    117 O     s    0.230181 *  0.179008 *  0.433706 *  -2.51300    1.000000    
    118 O     s    0.188857 *  0.464831 *  0.593801 *  -2.51300    1.000000    
    119 O     s    0.725156 *  0.077708 *  0.443159 *  -2.51300    1.000000    
    120 O     s    0.706575 *  0.346014 *  0.614635 *  -2.51300    1.000000    
    121 O     s    0.991403 *  0.603557 *  0.595830 *  -2.51300    1.000000    
    122 O     s    0.434121 *  0.869346 *  0.424060 *  -2.51300    1.000000    
    123 O     s    0.500855 *  0.672073 *  0.584832 *  -2.51300    1.000000    
    124 O     s    0.939013 *  0.932433 *  0.435084 *  -2.51300    1.000000    
    125 O     s    0.205442 *  0.686793 *  0.428070 *  -2.51300    1.000000    
    126 O     s    0.189279 *  0.949601 *  0.570960 *  -2.51300    1.000000    
    127 O     s    0.740873 *  0.564714 *  0.427468 *  -2.51300    1.000000    
    128 O     s    0.708567 *  0.853181 *  0.600258 *  -2.51300    1.000000    
    129 O     s    0.985110 *  0.103734 *  0.931260 *  -2.51300    1.000000    
    130 O     s    0.432916 *  0.354902 *  0.773661 *  -2.51300    1.000000    
    131 O     s    0.496384 *  0.180394 *  0.916103 *  -2.51300    1.000000    
    132 O     s    0.938666 *  0.433346 *  0.760726 *  -2.51300    1.000000    
    133 O     s    0.223941 *  0.210971 *  0.774698 *  -2.51300    1.000000    
    134 O     s    0.194690 *  0.448907 *  0.927088 *  -2.51300    1.000000    
    135 O     s    0.733601 *  0.092327 *  0.761151 *  -2.51300    1.000000    
    136 O     s    0.709286 *  0.341398 *  0.909641 *  -2.51300    1.000000    
    137 O     s    0.998326 *  0.597590 *  0.927016 *  -2.51300    1.000000    
    138 O     s    0.427018 *  0.858397 *  0.760657 *  -2.51300    1.000000    
    139 O     s    0.500480 *  0.672539 *  0.936549 *  -2.51300    1.000000    
    140 O     s    0.920870 *  0.928290 *  0.758698 *  -2.51300    1.000000    
    141 O     s    0.204311 *  0.692749 *  0.761990 *  -2.51300    1.000000    
    142 O     s    0.185532 *  0.945716 *  0.948156 *  -2.51300    1.000000    
    143 O     s    0.756773 *  0.582988 *  0.762344 *  -2.51300    1.000000    
    144 O     s    0.707687 *  0.851879 *  0.920459 *  -2.51300    1.000000    
--------------------------------------------------------------------------------



  Distance calculation :


  Cutoff for distances  =      4.400000 Angstroms

--------------------------------------------------------------------------------
  Asymmetric unit site  Full lattice sites    No.  Distance      No.  Distance
      No.   At.No.            At.No.                (Angs)             (Angs) 
--------------------------------------------------------------------------------
       1   Tc    core        Tc    core         1    2.8487        1    2.8748
                                                1    2.9402        1    2.9795
                                                1    3.4248
                             Tc    shell        1    0.0247        1    2.8491
                                                1    2.8745        1    2.9604
                                                1    3.0078        1    3.4224
                             Mn    core         1    3.3287        1    3.4194
                                                1    3.4615
                             O     core         1    1.8999        1    1.9419
                                                1    1.9467        1    1.9692
                                                1    1.9750        1    1.9763
                                                1    3.1784        1    3.2216
                                                1    3.4425        1    3.4439
                                                1    3.4536        1    3.5139
                                                1    3.6367        1    3.8243
                                                1    3.8622        1    4.0126
                                                1    4.1822        1    4.3142
                                                1    4.3146        1    4.3243
                                                1    4.3246        1    4.3285
                                                1    4.3342        1    4.3567
                                                1    4.3732        1    4.3892
                             O     shell        1    1.8489        1    1.8643
                                                1    1.9182        1    1.9584
                                                1    1.9632        1    2.0874
                                                1    3.2295        1    3.3268
                                                1    3.4314        1    3.4697
                                                1    3.4928        1    3.5223
                                                1    3.6587        1    3.9022
                                                1    3.9638        1    4.1370
                                                1    4.1502        1    4.2369
                                                1    4.2373        1    4.2541
                                                1    4.3002        1    4.3771
                             Li    core         1    2.4811        1    2.6731
                                                1    2.8518        1    3.1281
                                                1    3.4910        1    3.7269
                                                1    3.7326        1    3.9198
--------------------------------------------------------------------------------
       2   Tc    core        Tc    core         1    2.7940        1    2.8404
                                                1    2.8876        1    2.9235
                                                1    3.3683
                             Tc    shell        1    0.0285        1    2.8204
                                                1    2.8424        1    2.8922
                                                1    2.9437        1    3.3582
                             Mn    core         1    3.3002        1    3.3538
                                                1    3.6152
                             O     core         1    1.9077        1    1.9277
                                                1    1.9400        1    1.9523
                                                1    1.9733        1    1.9753
                                                1    3.1453        1    3.3450
                                                1    3.3903        1    3.4307
                                                1    3.5069        1    3.5573
                                                1    3.6135        1    3.9783
                                                1    3.9846        1    4.0106
                                                1    4.0909        1    4.1924
                                                1    4.2069        1    4.2723
                                                1    4.2885        1    4.3436
                                                1    4.3799        1    4.3965
                             O     shell        1    1.8169        1    1.8674
                                                1    1.9362        1    1.9587
                                                1    1.9813        1    2.0638
                                                1    3.1737        1    3.3520
                                                1    3.3944        1    3.4590
                                                1    3.4638        1    3.6288
                                                1    3.6752        1    3.9890
                                                1    4.1350        1    4.1373
                                                1    4.1443        1    4.2973
                                                1    4.3047        1    4.3377
                                                1    4.3575        1    4.3698
                                                1    4.3981
                             Li    core         1    2.5805        1    2.7173
                                                1    2.8808        1    2.9581
                                                1    3.7629        1    3.8496
                                                1    4.2096        1    4.2378
--------------------------------------------------------------------------------
       3   Tc    core        Tc    core         1    2.8487        1    2.8769
                                                1    2.9235        1    2.9922
                                                1    3.4357
                             Tc    shell        1    0.0234        1    2.8509
                                                1    2.8716        1    2.9471
                                                1    3.0215        1    3.4342
                             Mn    core         1    3.3256        1    3.4008
                                                1    3.4697
                             O     core         1    1.9002        1    1.9367
                                                1    1.9465        1    1.9665
                                                1    1.9780        1    1.9986
                                                1    3.1945        1    3.2302
                                                1    3.4596        1    3.4649
                                                1    3.4652        1    3.5021
                                                1    3.6785        1    3.8062
                                                1    3.8390        1    3.9800
                                                1    4.1865        1    4.2661
                                                1    4.2908        1    4.3065
                                                1    4.3082        1    4.3210
                                                1    4.3461        1    4.3531
                                                1    4.3634        1    4.3747
                             O     shell        1    1.8441        1    1.8650
                                                1    1.9394        1    1.9472
                                                1    1.9600        1    2.0789
                                                1    3.2341        1    3.3415
                                                1    3.4486        1    3.4579
                                                1    3.5059        1    3.5473
                                                1    3.6896        1    3.8887
                                                1    3.9089        1    4.0927
                                                1    4.1169        1    4.2195
                                                1    4.2503        1    4.2525
                                                1    4.2622        1    4.3929
                                                1    4.3960
                             Li    core         1    2.4581        1    2.6031
                                                1    2.9255        1    3.1298
                                                1    3.4974        1    3.6540
                                                1    3.8459        1    3.9245
--------------------------------------------------------------------------------
       4   Tc    core        Tc    core         1    3.3421        1    3.3529
                                                1    3.3683
                             Tc    shell        1    0.0107        1    3.3314
                                                1    3.3405        1    3.3539
                             Mn    core         1    2.8531        1    2.8989
                                                1    3.0209        1    3.0249
                                                1    3.2954
                             O     core         1    1.8489        1    1.9272
                                                1    1.9364        1    2.0209
                                                1    2.0796        1    2.0803
                                                1    3.0894        1    3.1646
                                                1    3.2308        1    3.2727
                                                1    3.4792        1    3.4859
                                                1    3.5621        1    3.7544
                                                1    3.8084        1    3.9467
                                                1    4.2325        1    4.2635
                                                1    4.2663        1    4.3092
                                                1    4.3114        1    4.3261
                                                1    4.3283        1    4.3474
                                                1    4.3490        1    4.3514
                                                1    4.3563
                             O     shell        1    1.8915        1    1.8981
                                                1    1.9000        1    2.0194
                                                1    2.0196        1    2.0542
                                                1    3.1617        1    3.1758
                                                1    3.2574        1    3.2964
                                                1    3.3667        1    3.3708
                                                1    3.5022        1    3.8263
                                                1    3.9068        1    4.0900
                                                1    4.1095        1    4.2149
                                                1    4.2761        1    4.2797
                                                1    4.2819        1    4.2926
                                                1    4.3255        1    4.3480
                                                1    4.3994
                             Li    core         1    2.5012        1    3.0358
                                                1    3.0700        1    3.4755
                                                1    3.5180        1    3.6974
                                                1    3.8008        1    3.8139
--------------------------------------------------------------------------------
       5   Tc    core        Tc    core         1    2.7940        1    2.7948
                                                1    2.8748        1    2.8769
                             Tc    shell        1    0.0349        1    2.8187
                                                1    2.8191        1    2.8741
                                                1    2.8780
                             Mn    core         1    3.3730        1    3.3871
                                                1    3.5858        1    3.6226
                             O     core         1    1.8474        1    1.8648
                                                1    1.9042        1    2.0094
                                                1    2.0167        1    2.0321
                                                1    3.4310        1    3.4454
                                                1    3.4753        1    3.4755
                                                1    3.4899        1    3.4919
                                                1    3.5220        1    3.6941
                                                1    3.9187        1    3.9745
                                                1    4.0191        1    4.0851
                                                1    4.2690        1    4.3576
                                                1    4.3617        1    4.3870
                             O     shell        1    1.7754        1    1.7881
                                                1    1.9226        1    1.9907
                                                1    2.0802        1    2.1048
                                                1    3.4504        1    3.4705
                                                1    3.4848        1    3.4905
                                                1    3.4906        1    3.5006
                                                1    3.6797        1    3.7727
                                                1    3.9318        1    3.9808
                                                1    3.9913        1    4.0614
                                                1    4.1345        1    4.3861
                             Li    core         1    2.5523        1    2.7455
                                                1    2.7920        1    3.5234
                                                1    3.5989
--------------------------------------------------------------------------------
       6   Tc    core        Tc    core         1    2.8653        1    2.9492
                                                1    2.9837
                             Tc    shell        1    0.0339        1    2.8611
                                                1    2.9635        1    2.9932
                             Mn    core         1    2.9298        1    3.2839
                                                1    3.3129        1    3.3364
                                                1    3.3454
                             O     core         1    1.8453        1    1.8850
                                                1    1.9000        1    1.9076
                                                1    2.0103        1    2.0228
                                                1    3.1770        1    3.2538
                                                1    3.4102        1    3.4362
                                                1    3.5135        1    3.5333
                                                1    3.5423        1    3.8147
                                                1    3.8290        1    3.8328
                                                1    4.1736        1    4.2176
                                                1    4.2334        1    4.2556
                                                1    4.2595        1    4.2692
                                                1    4.2941        1    4.2969
                                                1    4.3183        1    4.3961
                             O     shell        1    1.7827        1    1.8691
                                                1    1.9329        1    1.9945
                                                1    2.0029        1    2.0632
                                                1    3.2253        1    3.2522
                                                1    3.4584        1    3.4764
                                                1    3.5239        1    3.5280
                                                1    3.5404        1    3.9509
                                                1    3.9549        1    3.9646
                                                1    4.1149        1    4.1218
                                                1    4.1493        1    4.2766
                                                1    4.2866        1    4.3098
                                                1    4.3457        1    4.3734
                                                1    4.3778        1    4.3781
                                                1    4.3853        1    4.3956
                             Li    core         1    2.7197        1    2.7925
                                                1    2.9823        1    3.0474
                                                1    3.5339
--------------------------------------------------------------------------------
       7   Tc    core        Tc    core         1    2.8743        1    2.9492
                                                1    2.9573        1    3.2113
                             Tc    shell        1    0.0202        1    2.8813
                                                1    2.9720        1    2.9792
                                                1    3.2028
                             Mn    core         1    2.8467        1    3.2576
                                                1    3.2826        1    3.3429
                             O     core         1    1.8691        1    1.8836
                                                1    1.9264        1    1.9488
                                                1    1.9577        1    1.9869
                                                1    3.1959        1    3.2629
                                                1    3.3508        1    3.3932
                                                1    3.5212        1    3.5301
                                                1    3.5541        1    3.8193
                                                1    3.8353        1    3.8749
                                                1    4.1269        1    4.1895
                                                1    4.2314        1    4.2325
                                                1    4.2927        1    4.2938
                                                1    4.3289        1    4.3311
                                                1    4.3433        1    4.3612
                                                1    4.3826        1    4.3888
                             O     shell        1    1.8912        1    1.8999
                                                1    1.9143        1    1.9311
                                                1    1.9483        1    2.0174
                                                1    3.1910        1    3.3649
                                                1    3.3888        1    3.4236
                                                1    3.4726        1    3.5631
                                                1    3.6001        1    3.8764
                                                1    3.9116        1    4.0221
                                                1    4.1147        1    4.1931
                                                1    4.2201        1    4.2901
                                                1    4.3000        1    4.3017
                                                1    4.3297        1    4.3473
                             Li    core         1    2.8187        1    2.9568
                                                1    2.9993        1    3.1083
                                                1    3.9762        1    4.1833
                                                1    4.2018
--------------------------------------------------------------------------------
       8   Tc    core        Tc    core         1    2.8743        1    2.9837
                                                1    3.1620
                             Tc    shell        1    0.0205        1    2.8742
                                                1    3.0016        1    3.1525
                             Mn    core         1    2.8498        1    2.9693
                                                1    3.2554        1    3.2962
                                                1    3.3491
                             O     core         1    1.8496        1    1.8614
                                                1    1.9483        1    1.9633
                                                1    1.9883        1    2.0090
                                                1    3.2142        1    3.2590
                                                1    3.3666        1    3.4056
                                                2    3.4323        1    3.4863
                                                1    3.8015        1    3.8134
                                                1    3.8300        1    4.1754
                                                1    4.1886        1    4.2002
                                                1    4.2418        1    4.2683
                                                1    4.2856        1    4.3171
                                                1    4.3476        1    4.3539
                                                1    4.3551        1    4.3796
                             O     shell        1    1.8856        1    1.8896
                                                1    1.8990        1    1.9365
                                                1    2.0043        1    2.0194
                                                1    3.2064        1    3.3230
                                                1    3.3692        1    3.3938
                                                1    3.4039        1    3.4156
                                                1    3.5398        1    3.8605
                                                1    3.8896        1    3.9752
                                                1    4.1130        1    4.1663
                                                1    4.1878        1    4.2932
                                                1    4.3024        1    4.3059
                                                1    4.3403        1    4.3593
                                                1    4.3838        1    4.3976
                             Li    core         1    2.8013        1    3.0158
                                                1    3.0306        1    3.0630
                                                1    4.1052        1    4.1102
                                                1    4.1520
--------------------------------------------------------------------------------
       9   Tc    core        Tc    core         1    3.1620        1    3.2113
                                                1    3.4248        1    3.4357
                             Tc    shell        1    0.0112        1    3.1712
                                                1    3.2075        1    3.4164
                                                1    3.4275
                             Mn    core         1    2.8451        1    2.8482
                                                1    2.8686        1    2.8749
                                                1    4.3448
                             O     core         1    1.8996        1    1.9062
                                                1    1.9107        1    1.9482
                                                1    2.0369        1    2.0438
                                                1    3.0239        1    3.1101
                                                1    3.3590        1    3.3862
                                                1    3.4115        1    3.5164
                                                1    3.5331        1    3.8998
                                                1    3.9144        1    3.9939
                                                1    4.0263        1    4.1275
                                                1    4.2569        1    4.2707
                                                1    4.2806        1    4.3097
                                                1    4.3195        1    4.3459
                                                1    4.3469        1    4.3731
                             O     shell        1    1.8527        1    1.8622
                                                1    1.8756        1    1.9439
                                                1    2.0180        1    2.0282
                                                1    3.1121        1    3.1251
                                                1    3.2671        1    3.2948
                                                1    3.3051        1    3.4502
                                                1    3.4638        1    3.9492
                                                1    3.9588        1    4.2208
                                                1    4.2604        1    4.2647
                                                1    4.2888        1    4.2901
                                                1    4.2915        1    4.2941
                                                1    4.3286        1    4.3637
                                                1    4.3659        1    4.3678
                                                1    4.3819
                             Li    core         1    2.4713        1    2.5006
                                                1    3.7669        1    3.7782
                                                1    4.0092        1    4.1011
                                                1    4.1390        1    4.2355
--------------------------------------------------------------------------------
      10   Tc    core        Tc    core         1    2.8653        1    2.9573
                                                1    3.3421
                             Tc    shell        1    0.0204        1    2.8785
                                                1    2.9712        1    3.3413
                             Mn    core         1    2.7735        1    2.8666
                                                1    3.2678        1    3.3269
                                                1    3.4282
                             O     core         1    1.8769        1    1.8971
                                                1    1.9156        1    1.9307
                                                1    1.9660        1    2.0128
                                                1    3.3223        1    3.3578
                                                1    3.3679        1    3.4059
                                                1    3.4625        1    3.5044
                                                1    3.5673        1    3.6902
                                                1    3.8115        1    3.8212
                                                1    4.1752        1    4.2443
                                                1    4.2480        1    4.2631
                                                1    4.2895        1    4.2988
                                                1    4.3295        1    4.3480
                                                1    4.3531        1    4.3695
                                                1    4.3997
                             O     shell        1    1.8447        1    1.8670
                                                1    1.9150        1    1.9795
                                                1    1.9805        1    1.9996
                                                1    3.3074        1    3.3484
                                                1    3.4429        1    3.4745
                                                1    3.4761        1    3.4898
                                                1    3.5645        1    3.8801
                                                1    3.8930        1    3.9514
                                                1    4.0950        1    4.1210
                                                1    4.1229        1    4.2657
                                                1    4.2659        1    4.3403
                                                1    4.3529        1    4.3607
                             Li    core         1    2.7546        1    2.9665
                                                1    3.4806        1    3.6095
                                                1    4.3373
--------------------------------------------------------------------------------
      11   Tc    core        Tc    core         1    2.8401        1    2.8404
                                                1    2.9795        1    2.9922
                             Tc    shell        1    0.0328        1    2.8355
                                                1    2.8375        1    3.0021
                                                1    3.0129
                             Mn    core         1    3.3752        1    3.3925
                                                1    3.5175        1    3.5357
                             O     core         1    1.9353        1    1.9358
                                                1    1.9511        2    1.9636
                                                1    2.0134        1    3.2677
                                                1    3.2740        1    3.2862
                                                1    3.3549        1    3.4113
                                                1    3.4209        1    3.5706
                                                1    3.8258        1    3.9192
                                                1    3.9333        1    4.1776
                                                1    4.2159        1    4.2753
                                                1    4.2765        1    4.2803
                                                1    4.3465        1    4.3540
                                                1    4.3655        1    4.3707
                                                1    4.3961
                             O     shell        1    1.8658        1    1.9072
                                                1    1.9076        1    1.9840
                                                1    2.0042        1    2.1228
                                                1    3.2972        1    3.3082
                                                1    3.3143        1    3.3597
                                                1    3.3670        1    3.4282
                                                1    3.4992        1    3.9059
                                                1    3.9704        1    3.9891
                                                1    4.1063        1    4.1875
                                                1    4.1975        1    4.3024
                                                1    4.3646        1    4.3941
                                                1    4.3957
                             Li    core         1    2.6668        1    2.8751
                                                1    2.9882        1    3.0190
                                                1    3.0354        1    3.4400
                                                1    3.4454        1    3.4934
                                                1    4.0116        1    4.1665
--------------------------------------------------------------------------------
      12   Tc    core        Tc    core         1    2.7948        1    2.8401
                                                1    2.8876        1    2.9402
                                                1    3.3529
                             Tc    shell        1    0.0259        1    2.8239
                                                1    2.8398        1    2.8902
                                                1    2.9605        1    3.3450
                             Mn    core         1    3.2975        1    3.3814
                                                1    3.5841
                             O     core         1    1.9122        1    1.9241
                                                1    1.9330        1    1.9333
                                                1    1.9473        1    1.9793
                                                1    3.2664        1    3.3189
                                                1    3.3944        1    3.4285
                                                1    3.4993        1    3.5187
                                                1    3.6241        1    3.9479
                                                1    3.9660        1    4.0051
                                                1    4.0428        1    4.1821
                                                1    4.1951        1    4.2705
                                                1    4.2935        1    4.3299
                                                1    4.3822        1    4.3915
                                                1    4.3956
                             O     shell        1    1.8275        1    1.8646
                                                1    1.9386        1    1.9580
                                                1    1.9589        1    2.0381
                                                1    3.2998        1    3.3587
                                                1    3.3634        1    3.4577
                                                1    3.4701        1    3.5599
                                                1    3.6831        1    3.9807
                                                1    4.1027        1    4.1221
                                                1    4.1404        1    4.2760
                                                1    4.2835        1    4.2941
                                                1    4.3280        1    4.3347
                             Li    core         1    2.5772        1    2.6403
                                                1    2.8958        1    2.9786
                                                1    3.7014        1    3.9524
                                                1    4.1865        1    4.2518
--------------------------------------------------------------------------------
      13   Mn    core        Tc    core         1    3.2826        1    3.3730
                                                1    3.4008
                             Tc    shell        1    3.2656        1    3.3550
                                                1    3.3846
                             Mn    core         1    2.8474        1    2.8477
                                                1    2.8801        1    2.9227
                                                1    3.2836
                             O     core         1    1.7616        1    1.8506
                                                1    1.8563        1    1.8965
                                                1    1.8990        1    1.9051
                                                1    3.2880        1    3.2916
                                                1    3.3706        1    3.3819
                                                1    3.4109        1    3.4418
                                                1    3.5224        1    3.6921
                                                1    3.9031        1    3.9693
                                                1    4.0758        1    4.1393
                                                1    4.1584        1    4.2140
                                                1    4.2285        1    4.3594
                                                1    4.3698        1    4.3782
                                                1    4.3916
                             O     shell        1    1.7308        1    1.7559
                                                1    1.7633        1    1.8049
                                                1    1.8181        1    1.8286
                                                1    3.2230        1    3.2271
                                                1    3.3508        1    3.3524
                                                1    3.3606        1    3.3996
                                                1    3.5845        1    3.8995
                                                1    4.0228        1    4.0356
                                                1    4.0681        1    4.0964
                                                1    4.0983        1    4.1262
                                                1    4.1892        1    4.2781
                                                1    4.3626
                             Li    core         1    2.8343        1    2.9597
                                                1    3.4835        1    3.5445
                                                1    4.0498
--------------------------------------------------------------------------------
      14   Mn    core        Tc    core         1    3.2962        1    3.3871
                                                1    3.4194
                             Tc    shell        1    3.2761        1    3.3713
                                                1    3.4020
                             Mn    core         1    2.8402        1    2.8588
                                                1    2.8801        1    2.9206
                                                1    3.2676
                             O     core         1    1.7681        1    1.8472
                                                1    1.8503        1    1.8973
                                                1    1.9052        1    1.9086
                                                1    3.2583        1    3.3141
                                                1    3.3640        1    3.3656
                                                1    3.3823        1    3.4315
                                                1    3.5305        1    3.6738
                                                1    3.8474        1    4.0252
                                                1    4.0650        1    4.1379
                                                1    4.1574        1    4.2265
                                                1    4.2576        1    4.3518
                                                1    4.3925        1    4.3965
                                                1    4.3980
                             O     shell        1    1.7395        1    1.7494
                                                1    1.7658        1    1.8000
                                                1    1.8237        1    1.8391
                                                1    3.1924        1    3.2821
                                                1    3.3259        1    3.3410
                                                1    3.3826        1    3.3873
                                                1    3.5954        1    3.8839
                                                1    3.9469        1    4.0830
                                                1    4.0904        1    4.1025
                                                1    4.1223        1    4.1264
                                                1    4.1745        1    4.2880
                                                1    4.3132        1    4.3963
                                                1    4.3971
                             Li    core         1    2.8904        1    2.9133
                                                1    3.4626        1    3.5700
                                                1    4.0549
--------------------------------------------------------------------------------
      15   Mn    core        Tc    core         1    2.8451        1    2.8989
                                                1    3.2839        1    3.4282
                                                1    3.5175        1    3.6152
                             Tc    shell        1    2.8539        1    2.8976
                                                1    3.2633        1    3.4130
                                                1    3.4967        1    3.5978
                             Mn    core         1    2.8380        1    2.8442
                             O     core         1    1.7758        1    1.8593
                                                1    1.8782        1    1.8886
                                                1    1.8917        1    1.9072
                                                1    3.4194        1    3.4424
                                                1    3.4482        1    3.4503
                                                1    3.4571        1    3.4767
                                                1    3.4846        1    3.5898
                                                1    3.9561        1    4.0622
                                                1    4.1163        1    4.1483
                                                1    4.2162        1    4.2403
                                                1    4.2599        1    4.3099
                                                1    4.3753
                             O     shell        1    1.7104        1    1.7413
                                                1    1.7765        1    1.7781
                                                1    1.7842        1    1.8233
                                                1    3.2967        1    3.4247
                                                1    3.4545        1    3.4574
                                                1    3.4821        1    3.5560
                                                1    3.5633        1    3.8896
                                                1    4.0074        1    4.1142
                                                1    4.1575        1    4.1766
                                                1    4.1802        1    4.1821
                                                1    4.2571        1    4.2679
                                                1    4.3352        1    4.3603
                             Li    core         1    2.5104        1    2.6500
                                                1    3.2646        1    3.6725
                                                1    3.7308        1    4.2333
                                                1    4.3116
--------------------------------------------------------------------------------
      16   Mn    core        Tc    core         1    2.8482        1    2.8531
                                                1    3.3454        1    3.5357
                                                1    3.5841
                             Tc    shell        1    2.8560        1    2.8566
                                                1    3.3145        1    3.5141
                                                1    3.5672
                             Mn    core         1    2.8339        1    2.8442
                                                1    3.3588
                             O     core         1    1.7918        1    1.8454
                                                1    1.8621        1    1.8800
                                                1    1.8857        1    1.9164
                                                1    3.3272        1    3.4289
                                                1    3.4414        1    3.4480
                                                1    3.4507        1    3.4544
                                                1    3.5648        1    3.5714
                                                1    3.9753        1    3.9803
                                                1    4.1284        1    4.1438
                                                1    4.1616        1    4.1874
                                                1    4.2294        1    4.3351
                                                1    4.3417
                             O     shell        1    1.7338        1    1.7585
                                                1    1.7685        1    1.7694
                                                1    1.7913        1    1.7996
                                                1    3.3194        1    3.3205
                                                1    3.3941        1    3.4302
                                                1    3.4379        1    3.4579
                                                1    3.6336        1    3.8684
                                                1    4.0172        1    4.0299
                                                1    4.0636        1    4.1199
                                                1    4.1716        1    4.1882
                                                1    4.1907        1    4.2932
                                                1    4.2946        1    4.3881
                             Li    core         1    2.5199        1    2.6554
                                                1    3.2795        1    3.5821
                                                1    3.9329        1    4.1840
                                                1    4.2999
--------------------------------------------------------------------------------
      17   Mn    core        Tc    core         1    3.3269        1    3.3364
                                                1    3.3538        1    3.3752
                             Tc    shell        1    3.3152        1    3.3330
                                                1    3.3360        1    3.3595
                             Mn    core         1    2.8411        1    2.8477
                                                1    2.8551        1    2.8611
                             O     core         1    1.7878        1    1.8248
                                                1    1.8292        1    1.8972
                                                1    1.9010        1    1.9416
                                                1    3.3260        1    3.3358
                                                1    3.3512        1    3.3678
                                                1    3.4146        1    3.4488
                                                1    3.4776        1    3.8795
                                                1    3.9380        1    3.9570
                                                1    4.0705        1    4.1657
                                                1    4.1786        1    4.1871
                                                1    4.2163        1    4.2720
                                                1    4.3259        1    4.3486
                                                1    4.3742        1    4.3767
                             O     shell        1    1.7197        1    1.7531
                                                1    1.7561        1    1.7568
                                                1    1.8232        1    1.8598
                                                1    3.2016        1    3.3327
                                                1    3.3354        1    3.3449
                                                1    3.3676        1    3.3714
                                                1    3.5394        1    4.0031
                                                1    4.0213        1    4.0244
                                                1    4.1572        1    4.1877
                                                1    4.2137        1    4.2328
                                                1    4.2842        1    4.3226
                                                1    4.3362        1    4.3857
                                                1    4.3865        1    4.3984
                             Li    core         1    2.6890        1    3.1226
                                                1    3.2311        1    3.9818
                                                1    4.1870        1    4.3120
--------------------------------------------------------------------------------
      18   Mn    core        Tc    core         1    3.3129        1    3.3814
                                                1    3.3925
                             Tc    shell        1    3.2988        1    3.3653
                                                1    3.3763
                             Mn    core         1    2.8411        1    2.8588
                                                1    2.8659        1    2.8673
                                                1    3.3172
                             O     core         1    1.7841        1    1.8269
                                                1    1.8513        1    1.8933
                                                1    1.9096        1    1.9257
                                                1    3.2093        1    3.3623
                                                1    3.3665        1    3.3757
                                                1    3.3986        1    3.4271
                                                1    3.4372        1    3.9336
                                                1    3.9355        1    3.9428
                                                1    4.0062        1    4.1712
                                                1    4.1721        1    4.1767
                                                1    4.1928        1    4.1966
                                                1    4.2749        1    4.2834
                                                1    4.3230        1    4.3959
                                                1    4.3970        1    4.3982
                             O     shell        1    1.7167        1    1.7443
                                                1    1.7480        1    1.8137
                                                1    1.8381        1    1.8438
                                                1    3.2115        1    3.2239
                                                1    3.3382        1    3.3454
                                                1    3.3683        1    3.3727
                                                1    3.4495        1    3.9920
                                                1    4.0166        1    4.0806
                                                1    4.1477        1    4.1982
                                                1    4.2019        1    4.2243
                                                1    4.2260        1    4.2564
                                                1    4.3075        1    4.3356
                                                1    4.3369        1    4.3599
                                                1    4.3681        1    4.3773
                             Li    core         1    2.7154        1    3.1423
                                                1    3.1733        1    4.0825
                                                1    4.1200        1    4.2653
--------------------------------------------------------------------------------
      19   Mn    core        Tc    core         1    2.8686        1    3.0249
                                                1    3.3287        1    3.3491
                                                1    3.5858
                             Tc    shell        1    2.8682        1    3.0328
                                                1    3.3176        1    3.3526
                                                1    3.5626
                             Mn    core         1    2.8339        1    2.8362
                                                1    3.4404
                             O     core         1    1.8013        1    1.8116
                                                1    1.8772        1    1.8836
                                                1    1.8909        1    1.9040
                                                1    3.2703        1    3.2936
                                                1    3.3254        1    3.3452
                                                1    3.3724        1    3.4304
                                                1    3.5044        1    3.8992
                                                1    3.9137        1    3.9775
                                                1    4.1612        1    4.1714
                                                1    4.1895        1    4.2396
                                                1    4.2660        1    4.3064
                                                1    4.3172        1    4.3238
                                                1    4.3270        1    4.3326
                                                1    4.3687        1    4.3844
                                                1    4.3897
                             O     shell        1    1.7313        1    1.7327
                                                1    1.7380        1    1.7930
                                                1    1.8076        1    1.8378
                                                1    3.2548        1    3.2675
                                                1    3.3714        1    3.3804
                                                1    3.3858        1    3.3945
                                                1    3.4323        1    3.9535
                                                1    4.0178        1    4.0931
                                                1    4.2085        1    4.2122
                                                1    4.2167        1    4.2405
                                                1    4.2711        1    4.2823
                                                1    4.3016        1    4.3227
                                                1    4.3404        1    4.3636
                                                1    4.3964
                             Li    core         1    2.6637        1    2.8000
                                                1    2.8304        1    2.9205
                                                1    3.6035        1    3.6628
                                                1    3.8755        1    4.2577
                                                1    4.2888
--------------------------------------------------------------------------------
      20   Mn    core        Tc    core         1    2.7735        1    2.9298
                                                1    2.9693        1    3.2954
                             Tc    shell        1    2.7775        1    2.9179
                                                1    2.9716        1    3.2965
                             Mn    core         1    2.8537        1    3.3172
                                                1    3.3201        1    3.3588
                             O     core         1    1.8115        1    1.8181
                                                1    1.8325        1    1.8383
                                                1    1.8894        1    1.9196
                                                1    3.3537        1    3.3683
                                                1    3.4301        1    3.4673
                                                1    3.4828        1    3.5125
                                                1    3.5203        1    3.7660
                                                1    3.8293        1    3.8384
                                                1    4.1509        1    4.1862
                                                1    4.2450        1    4.2666
                                                1    4.2696        1    4.2842
                                                1    4.3017        1    4.3067
                                                1    4.3538        1    4.3541
                                                1    4.3694        1    4.3987
                             O     shell        1    1.7101        1    1.7128
                                                1    1.7298        1    1.8062
                                                1    1.8578        1    1.8827
                                                1    3.3324        1    3.4653
                                                1    3.4667        1    3.4725
                                                1    3.4790        1    3.4970
                                                1    3.5219        1    3.9189
                                                1    3.9477        1    3.9546
                                                1    4.0792        1    4.0875
                                                1    4.1811        1    4.2725
                                                1    4.3260        1    4.3281
                                                1    4.3423        1    4.3491
                                                1    4.3573        1    4.3965
                                                1    4.3970
                             Li    core         1    2.8053        1    2.9434
                                                1    3.4002        1    3.5779
                                                1    4.2231
--------------------------------------------------------------------------------
      21   Mn    core        Tc    core         1    2.8467        1    2.8498
                                                1    2.8666
                             Tc    shell        1    2.8424        1    2.8470
                                                1    2.8853
                             Mn    core         1    2.8537        1    3.2676
                                                1    3.2836        1    3.4404
                                                1    3.4560
                             O     core         1    1.7960        1    1.8001
                                                1    1.8537        1    1.8846
                                                1    1.8934        1    1.9014
                                                1    3.3432        1    3.3629
                                                1    3.3660        1    3.3907
                                                1    3.3909        1    3.4216
                                                1    3.5069        1    3.8878
                                                1    3.9248        1    3.9630
                                                1    4.1016        1    4.1043
                                                1    4.2027        1    4.2327
                                                1    4.2362        1    4.2365
                                                1    4.2604        1    4.2639
                                                1    4.3089        1    4.3213
                                                1    4.3367        1    4.3608
                                                1    4.3742
                             O     shell        1    1.7290        1    1.7517
                                                1    1.7606        1    1.7696
                                                1    1.7794        1    1.9619
                                                1    3.3448        1    3.3477
                                                1    3.3518        1    3.3859
                                                1    3.4069        1    3.4093
                                                1    3.4101        1    3.9765
                                                1    4.0078        1    4.0880
                                                1    4.1822        1    4.1837
                                                1    4.2149        1    4.2226
                                                1    4.2477        1    4.2690
                                                1    4.2709        1    4.2742
                                                1    4.2795        1    4.3896
                                                1    4.3925
                             Li    core         1    2.8724        1    2.9554
                                                1    3.1115        1    3.9250
                                                1    3.9978        1    4.0573
                                                1    4.0660
--------------------------------------------------------------------------------
      22   Mn    core        Tc    core         1    2.8749        1    3.0209
                                                1    3.3256        1    3.3429
                                                1    3.6226
                             Tc    shell        1    2.8765        1    3.0265
                                                1    3.3162        1    3.3395
                                                1    3.5976
                             Mn    core         1    2.8362        1    2.8380
                                                1    3.4560
                             O     core         1    1.8082        1    1.8085
                                                1    1.8848        1    1.8886
                                                1    1.8955        1    1.9062
                                                1    3.2704        1    3.3130
                                                1    3.3468        1    3.3590
                                                1    3.3620        1    3.4058
                                                1    3.5139        1    3.8638
                                                1    3.9123        1    4.0036
                                                1    4.1463        1    4.2098
                                                1    4.2224        1    4.2304
                                                1    4.2892        1    4.2907
                                                1    4.3010        1    4.3232
                                                1    4.3284        1    4.3417
                                                1    4.3996
                             O     shell        1    1.7246        1    1.7406
                                                1    1.7439        1    1.7856
                                                1    1.8126        1    1.8592
                                                1    3.2685        1    3.2711
                                                1    3.3029        1    3.3615
                                                1    3.3817        1    3.4228
                                                1    3.4473        1    3.9642
                                                1    4.0306        1    4.0442
                                                1    4.1939        1    4.2358
                                                1    4.2456        1    4.2791
                                                1    4.3213        1    4.3304
                                                1    4.3361        1    4.3380
                                                1    4.3589        1    4.3610
                                                1    4.3807
                             Li    core         1    2.6283        1    2.7807
                                                1    2.8179        1    2.9436
                                                1    3.6520        1    3.7663
                                                1    3.7794        1    4.1962
                                                1    4.3285
--------------------------------------------------------------------------------
      23   Mn    core        Tc    core         1    3.2678        1    3.2975
                                                1    3.3002
                             Tc    shell        1    3.2599        1    3.2850
                                                1    3.2851
                             Mn    core         1    2.8611        1    2.8673
                                                1    2.9206        1    2.9227
                                                1    3.3201
[...]
   64 O     x      -1.3516      0.0392      0.0711
            y       0.0954     -0.8383     -0.0448
            z       0.1041     -0.0946     -1.4310
-------------------------------------------------------------------------------
   65 O     x      -1.3894     -0.2543      0.1213
            y      -0.3337     -1.1526      0.0404
            z       0.1237      0.0292     -1.5868
-------------------------------------------------------------------------------
   66 O     x      -1.4126      0.1801      0.0308
            y       0.1855     -1.2115      0.0684
            z       0.0890      0.0307     -1.6205
-------------------------------------------------------------------------------
   67 O     x      -1.1125      0.1883      0.0871
            y       0.1695     -1.0748     -0.0712
            z       0.0790     -0.0884     -1.7135
-------------------------------------------------------------------------------
   68 O     x      -1.2241     -0.0685     -0.0162
            y      -0.1289     -1.1402     -0.0671
            z      -0.0211     -0.0622     -1.5645
-------------------------------------------------------------------------------
   69 O     x      -1.3044     -0.0485     -0.0224
            y       0.0346     -0.7297      0.0741
            z      -0.0499      0.1148     -1.3690
-------------------------------------------------------------------------------
   70 O     x      -1.4855      0.2825     -0.1221
            y       0.0667     -0.8224     -0.1170
            z      -0.0655     -0.1817     -1.1776
-------------------------------------------------------------------------------
   71 O     x      -1.8193      0.3733      0.0546
            y       0.2214     -1.0163     -0.0396
            z       0.0625     -0.0901     -1.1721
-------------------------------------------------------------------------------
   72 O     x      -1.3767     -0.2276     -0.0332
            y      -0.1008     -0.7979      0.0403
            z      -0.0261      0.0464     -1.2669
-------------------------------------------------------------------------------
   73 O     x      -1.2370     -0.2584      0.3470
            y      -0.1499     -1.2103      0.2715
            z       0.2449      0.2479     -1.1534
-------------------------------------------------------------------------------
   74 O     x      -1.2806      0.5505      0.0149
            y       0.5407     -1.2922     -0.0209
            z      -0.0315      0.0623     -1.4574
-------------------------------------------------------------------------------
   75 O     x      -1.4455      0.4683      0.0993
            y       0.5782     -1.4531     -0.1391
            z       0.0676     -0.1193     -1.6750
-------------------------------------------------------------------------------
   76 O     x      -1.1820     -0.3939      0.0732
            y      -0.3657     -1.1327     -0.0037
            z       0.0906     -0.0190     -1.2139
-------------------------------------------------------------------------------
   77 O     x      -1.3380     -0.0818     -0.1118
            y       0.1009     -0.8518     -0.0250
            z      -0.1294      0.0684     -1.4119
-------------------------------------------------------------------------------
   78 O     x      -1.7511      0.0380     -0.0190
            y      -0.0834     -1.2140      0.0190
            z      -0.0146     -0.0029     -1.9445
-------------------------------------------------------------------------------
   79 O     x      -1.6400      0.2256     -0.0464
            y       0.1391     -1.1585     -0.0523
            z      -0.0471      0.0264     -1.7635
-------------------------------------------------------------------------------
   80 O     x      -1.2643      0.0267     -0.0022
            y       0.1063     -0.9170     -0.0184
            z       0.0328     -0.0017     -1.2850
-------------------------------------------------------------------------------
   81 O     x      -1.2418     -0.1877      0.0064
            y      -0.2523     -1.0155      0.0395
            z      -0.0181      0.0332     -1.6884
-------------------------------------------------------------------------------
   82 O     x      -1.3297      0.1271     -0.0655
            y       0.1732     -1.2070      0.0682
            z      -0.1255      0.1694     -1.5401
-------------------------------------------------------------------------------
   83 O     x      -1.1188      0.2084      0.0347
            y       0.1833     -1.1288      0.0176
            z       0.0101      0.0282     -1.6262
-------------------------------------------------------------------------------
   84 O     x      -1.2450     -0.1050      0.0060
            y      -0.1748     -1.1268     -0.0224
            z       0.0209     -0.0455     -1.5276
-------------------------------------------------------------------------------




  Elastic Constant Matrix: (Units=GPa)

-------------------------------------------------------------------------------
  Indices      1         2         3         4         5         6    
-------------------------------------------------------------------------------
       1    384.7432  144.9048  174.0603   -5.1288  -10.8410   23.2813
       2    144.9048  301.6780  124.7810   -8.5891   11.9274    7.2392
       3    174.0603  124.7810  616.5518   -6.5688    1.8095    6.9643
       4     -5.1288   -8.5891   -6.5688   78.2103    7.3890   -0.2994
       5    -10.8410   11.9274    1.8095    7.3890  129.4500   -2.0722
       6     23.2813    7.2392    6.9643   -0.2994   -2.0722  118.1376
-------------------------------------------------------------------------------


  Elastic Compliance Matrix: (Units=1/GPa)

-------------------------------------------------------------------------------
  Indices      1         2         3         4         5         6    
-------------------------------------------------------------------------------
       1    0.003483 -0.001388 -0.000697 -0.000025  0.000422 -0.000553
       2   -0.001388  0.004199 -0.000453  0.000381 -0.000518  0.000035
       3   -0.000697 -0.000453  0.001911  0.000070 -0.000047  0.000052
       4   -0.000025  0.000381  0.000070  0.012905 -0.000775 -0.000003
       5    0.000422 -0.000518 -0.000047 -0.000775  0.007854  0.000087
       6   -0.000553  0.000035  0.000052 -0.000003  0.000087  0.008570
-------------------------------------------------------------------------------

  Mechanical properties :

-------------------------------------------------------------------------------
  Convention :                    Reuss         Voigt         Hill
-------------------------------------------------------------------------------
  Bulk  Modulus (GPa)     =     221.45656     243.38502     232.42079
  Shear Modulus (GPa)     =     109.87839     122.44136     116.15987
-------------------------------------------------------------------------------
  Velocity S-wave (km/s)  =       4.44104       4.68806       4.56622
  Velocity P-wave (km/s)  =       8.12699       8.54346       8.33783
-------------------------------------------------------------------------------
  Compressibility (1/GPa) =    0.00451556
-------------------------------------------------------------------------------
  Stress axis :                     x             y             z
-------------------------------------------------------------------------------
  Youngs Moduli (GPa)     =     287.14245     238.12552     523.35708
-------------------------------------------------------------------------------
  Poissons Ratio (x)      =                     0.33062       0.36501
  Poissons Ratio (y)      =       0.39868                     0.23695
  Poissons Ratio (z)      =       0.20026       0.10781
-------------------------------------------------------------------------------


  Piezoelectric Strain Matrix: (Units=C/m**2)

-------------------------------------------------------------------------------
  Indices      1         2         3         4         5         6    
-------------------------------------------------------------------------------
       x    -5.67023   1.21611  -0.57132  -0.29740  -2.53252   0.29546
       y    -2.25793   3.18776  -1.55002  -0.15739  -2.20032  -0.35112
       z    -4.79404   9.88108   2.47772   1.06477  -4.73753  -0.83810
-------------------------------------------------------------------------------


  Piezoelectric Stress Matrix: (Units=10**-11 C/N)

-------------------------------------------------------------------------------
  Indices      1         2         3         4         5         6    
-------------------------------------------------------------------------------
       x    -2.22616   1.44474   0.24249  -0.13131  -2.26307   0.54595
       y    -1.19387   1.82914  -0.27570   0.08379  -1.97227  -0.19215
       z    -3.37046   4.98608   0.38553   2.14723  -4.53653  -0.44761
-------------------------------------------------------------------------------


  Static dielectric constant tensor : 

-------------------------------------------------------------------------------
              x         y         z
-------------------------------------------------------------------------------
       x    11.59937  -0.38626   0.55345
       y    -0.38626   8.37764   1.58650
       z     0.55345   1.58650  19.71692
--------------------------------------------------------------------------------

  High frequency dielectric constant tensor : 

-------------------------------------------------------------------------------
              x         y         z
-------------------------------------------------------------------------------
       x     4.24999  -0.04291  -0.04309
       y    -0.04291   3.63920  -0.01758
       z    -0.04309  -0.01758   4.42972
-------------------------------------------------------------------------------

  Static refractive indices : 

-------------------------------------------------------------------------------
    1 =    2.84598      2 =    3.41031      3 =    4.46813
-------------------------------------------------------------------------------

  High frequency refractive indices : 

-------------------------------------------------------------------------------
    1 =    1.90674      2 =    2.06001      3 =    2.10704
-------------------------------------------------------------------------------


  Phonon Calculation : 

  Number of k points for this configuration =        1

--------------------------------------------------------------------------------
  K point      1 =   0.000000  0.000000  0.000000  Weight =    1.000
--------------------------------------------------------------------------------

  Frequencies (cm-1) [NB: Negative implies an imaginary mode]:

   -0.00    0.00    0.00   58.03   71.28   80.56   89.01   93.02   96.46
  105.00  113.24  115.75  119.48  121.01  127.93  130.09  132.64  134.35
  135.37  137.71  140.96  142.78  145.70  148.14  149.96  152.33  153.71
  159.07  160.83  164.83  166.24  167.70  168.77  171.54  176.06  177.05
  181.78  183.88  187.53  191.03  194.00  196.00  197.67  202.62  202.75
  204.40  206.48  208.29  209.89  211.62  213.49  216.77  218.71  220.86
  223.33  227.55  229.19  230.82  233.84  235.58  237.30  239.87  240.62
  243.70  244.85  245.70  246.99  250.51  251.27  252.62  255.56  255.96
  259.30  260.99  265.49  266.36  268.45  271.55  275.41  276.06  277.80
  278.61  282.77  288.20  290.15  291.35  293.41  294.97  298.96  301.84
  303.81  307.24  310.64  312.72  314.04  317.20  321.87  323.87  325.64
  327.65  331.50  333.48  336.56  340.11  343.13  345.28  346.32  349.56
  350.29  351.06  353.46  354.19  356.81  357.31  359.05  359.44  362.27
  363.34  363.95  367.87  369.74  370.17  371.98  372.62  374.60  376.33
  378.93  380.20  381.36  382.93  384.48  385.34  387.51  388.91  390.53
  394.13  394.63  396.60  399.67  400.84  403.96  405.55  407.33  410.57
  412.30  413.42  414.99  417.15  418.29  419.62  420.20  421.15  423.66
  424.92  427.41  428.06  429.24  430.76  432.90  434.94  437.15  438.29
  440.62  441.64  443.31  443.75  444.78  448.55  449.31  451.88  452.04
  452.85  454.60  456.46  458.26  460.17  461.10  464.25  467.00  470.23
  472.55  474.02  475.29  475.99  478.82  479.20  480.83  481.02  484.98
  487.38  489.79  491.69  493.58  496.63  498.44  502.78  503.92  504.91
  507.28  507.78  510.21  511.10  513.10  518.98  519.22  521.73  525.61
  529.09  531.72  534.45  536.48  536.86  541.70  542.85  544.42  549.68
  551.42  553.89  557.91  558.48  561.40  572.35  579.58  590.99  601.14
  602.68  609.24  611.53  612.56  617.39  620.89  622.86  633.58  636.24
  638.45  647.48  649.84  651.79  657.39  662.63  664.95  666.12  668.71
  672.77  680.74  685.79  691.91  696.15  698.82  702.92  721.15  736.06


--------------------------------------------------------------------------------
  Phonon properties (per mole of unit cells): Temperature =      0.000 K
--------------------------------------------------------------------------------
  Zero point energy             =        5.820291 eV
--------------------------------------------------------------------------------

  Phonon density of states : 

--------------------------------------------------------------------------------
 Frequency (cm-1) Density of States                                             
--------------------------------------------------------------------------------
    0.00000 |***************                                               0.008
   11.50100 |                                                              0.000
   23.00200 |                                                              0.000
   34.50300 |                                                              0.000
   46.00399 |                                                              0.000
   57.50499 |*******                                                       0.004
   69.00599 |*******                                                       0.004
   80.50699 |***************                                               0.008
   92.00799 |***************                                               0.008
  103.50899 |***************                                               0.008
  115.00998 |**********************                                        0.012
  126.51098 |*********************************************                 0.024
  138.01198 |******************************                                0.016
  149.51298 |*************************************                         0.020
  161.01398 |*************************************                         0.020
  172.51498 |******************************                                0.016
  184.01597 |**********************                                        0.012
  195.51697 |*********************************************                 0.024
  207.01797 |*************************************                         0.020
  218.51897 |*************************************                         0.020
  230.01997 |*********************************************                 0.024
  241.52097 |****************************************************          0.028
  253.02196 |******************************                                0.016
  264.52296 |*************************************                         0.020
  276.02396 |******************************                                0.016
  287.52496 |*********************************************                 0.024
  299.02596 |**********************                                        0.012
  310.52696 |*************************************                         0.020
  322.02795 |*************************************                         0.020
  333.52895 |**********************                                        0.012
  345.02995 |****************************************************          0.028
  356.53095 |************************************************************  0.032
  368.03195 |****************************************************          0.028
  379.53295 |************************************************************  0.032
  391.03394 |*************************************                         0.020
  402.53494 |*********************************************                 0.024
  414.03594 |************************************************************  0.032
  425.53694 |*********************************************                 0.024
  437.03794 |****************************************************          0.028
  448.53894 |************************************************************  0.032
  460.03993 |*************************************                         0.020
  471.54093 |************************************************************  0.032
  483.04193 |*************************************                         0.020
  494.54293 |*************************************                         0.020
  506.04393 |*************************************                         0.020
  517.54493 |******************************                                0.016
  529.04592 |*************************************                         0.020
  540.54692 |*************************************                         0.020
  552.04792 |******************************                                0.016
  563.54892 |*******                                                       0.004
  575.04992 |*******                                                       0.004
  586.55092 |*******                                                       0.004
  598.05191 |**********************                                        0.012
  609.55291 |******************************                                0.016
  621.05391 |*******                                                       0.004
  632.55491 |**********************                                        0.012
  644.05591 |**********************                                        0.012
  655.55691 |******************************                                0.016
  667.05790 |***************                                               0.008
  678.55890 |***************                                               0.008
  690.05990 |**********************                                        0.012
  701.56090 |*******                                                       0.004
  713.06190 |*******                                                       0.004
  724.56290 |*******                                                       0.004
--------------------------------------------------------------------------------



  Time to end of optimisation =       3.7666 seconds


  Peak dynamic memory used =       3.11 MB 


  Timing analysis for GULP :

--------------------------------------------------------------------------------
  Task / Subroutine                                          Time (Seconds)
--------------------------------------------------------------------------------
  Calculation of reciprocal space energy and derivatives          0.2643
  Calculation of real space energy and derivatives                2.6877
  Calculation of phonons                                          0.7190
  Calculation and manipulation of Hessian matrix                  0.0026
  Calculation of matrix diagonalisation                           0.0115
  Calculation of matrix inversion                                 0.0666
  Global summation overhead                                       0.0349
--------------------------------------------------------------------------------
  Total CPU time                                                  3.7666
--------------------------------------------------------------------------------


  Dump file written as gulp.res
  CIF file written as cryst.cif


  Job Finished at 16:53.12 21st November   2023                               

