------------------------------------------------------------
          Invoking FHI-aims ...

          When using FHI-aims, please cite the following reference:

            Volker Blum, Ralf Gehrke, Felix Hanke, Paula Havu,
            Ville Havu, Xinguo Ren, Karsten Reuter, and Matthias Scheffler,
            'Ab Initio Molecular Simulations with Numeric Atom-Centered Orbitals',
            Computer Physics Communications 180, 2175-2196 (2009)

          In addition, many other developments in FHI-aims are likely important for
          your particular application. A partial list of references is given at the end of
          this file. Thank you for giving credit to the authors of these developments.

          For any questions about FHI-aims, please visit our slack channel at

            https://fhi-aims.slack.com

          and our main development and support site at

            https://aims-git.rz-berlin.mpg.de .

          The latter site, in particular, has a wiki to collect information, as well
          as an issue tracker to log discussions, suggest improvements, and report issues
          or bugs. https://aims-git.rz-berlin.mpg.de is also the main development site
          of the project and all new and updated code versions can be obtained there.
          Please send an email to aims-coordinators@fhi-berlin.mpg.de and we will add
          you to these sites. They are for you and everyone is welcome there.

------------------------------------------------------------



  Date     :  20231020, Time     :  160027.254
  Time zero on CPU 1             :   0.798374000000000E+00  s.
  Internal wall clock time zero  :           467049627.254  s.

  FHI-aims created a unique identifier for this run for later identification
  aims_uuid : 1646A0E8-AE84-46DF-A72C-88C9CF7097B5

  Build configuration of the current instance of FHI-aims
  -------------------------------------------------------
  FHI-aims version      : 210716.3
  Commit number         : GITDIR-NOTFOUND
  CMake host system     : Linux-5.14.21-150400.24.11_12.0.57-cray_shasta_c
  CMake version         : 3.20.4
  Fortran compiler      : /opt/cray/pe/craype/2.7.19/bin/ftn (GNU) version 11.2.0
  Fortran compiler flags: -O2 -fallow-argument-mismatch -ffree-line-length-none
  C compiler            : /opt/cray/pe/craype/2.7.19/bin/cc (GNU) version 11.2.0
  C compiler flags      : -O2
  Using MPI
  Using ScaLAPACK
  Using LibXC
  Using i-PI
  Using RLSY
  Linking against:

  Using      512 parallel tasks.
  Task        0 on host nid004202 reporting.
  Task        1 on host nid004202 reporting.
  Task        2 on host nid004202 reporting.
  Task        3 on host nid004202 reporting.
  Task        4 on host nid004202 reporting.
  Task        5 on host nid004202 reporting.
  Task        6 on host nid004202 reporting.
  Task        7 on host nid004202 reporting.
  Task        8 on host nid004202 reporting.
  Task        9 on host nid004202 reporting.
  Task       10 on host nid004202 reporting.
  Task       11 on host nid004202 reporting.
  Task       12 on host nid004202 reporting.
  Task       13 on host nid004202 reporting.
  Task       14 on host nid004202 reporting.
  Task       15 on host nid004202 reporting.
  Task       16 on host nid004202 reporting.
  Task       17 on host nid004202 reporting.
  Task       18 on host nid004202 reporting.
  Task       19 on host nid004202 reporting.
  Task       20 on host nid004202 reporting.
  Task       21 on host nid004202 reporting.
  Task       22 on host nid004202 reporting.
  Task       23 on host nid004202 reporting.
  Task       24 on host nid004202 reporting.
  Task       25 on host nid004202 reporting.
  Task       26 on host nid004202 reporting.
  Task       27 on host nid004202 reporting.
  Task       28 on host nid004202 reporting.
  Task       29 on host nid004202 reporting.
  Task       30 on host nid004202 reporting.
  Task       31 on host nid004202 reporting.
  Task       32 on host nid004202 reporting.
  Task       33 on host nid004202 reporting.
  Task       34 on host nid004202 reporting.
  Task       35 on host nid004202 reporting.
  Task       36 on host nid004202 reporting.
  Task       37 on host nid004202 reporting.
  Task       38 on host nid004202 reporting.
  Task       39 on host nid004202 reporting.
  Task       40 on host nid004202 reporting.
  Task       41 on host nid004202 reporting.
  Task       42 on host nid004202 reporting.
  Task       43 on host nid004202 reporting.
  Task       44 on host nid004202 reporting.
  Task       45 on host nid004202 reporting.
  Task       46 on host nid004202 reporting.
  Task       47 on host nid004202 reporting.
  Task       48 on host nid004202 reporting.
  Task       49 on host nid004202 reporting.
  Task       50 on host nid004202 reporting.
  Task       51 on host nid004202 reporting.
  Task       52 on host nid004202 reporting.
  Task       53 on host nid004202 reporting.
  Task       54 on host nid004202 reporting.
  Task       55 on host nid004202 reporting.
  Task       56 on host nid004202 reporting.
  Task       57 on host nid004202 reporting.
  Task       58 on host nid004202 reporting.
  Task       59 on host nid004202 reporting.
  Task       60 on host nid004202 reporting.
  Task       61 on host nid004202 reporting.
  Task       62 on host nid004202 reporting.
  Task       63 on host nid004202 reporting.
  Task       64 on host nid004202 reporting.
  Task       65 on host nid004202 reporting.
  Task       66 on host nid004202 reporting.
  Task       67 on host nid004202 reporting.
  Task       68 on host nid004202 reporting.
  Task       69 on host nid004202 reporting.
  Task       70 on host nid004202 reporting.
  Task       71 on host nid004202 reporting.
  Task       72 on host nid004202 reporting.
  Task       73 on host nid004202 reporting.
  Task       74 on host nid004202 reporting.
  Task       75 on host nid004202 reporting.
  Task       76 on host nid004202 reporting.
  Task       77 on host nid004202 reporting.
  Task       78 on host nid004202 reporting.
  Task       79 on host nid004202 reporting.
  Task       80 on host nid004202 reporting.
  Task       81 on host nid004202 reporting.
  Task       82 on host nid004202 reporting.
  Task       83 on host nid004202 reporting.
  Task       84 on host nid004202 reporting.
  Task       85 on host nid004202 reporting.
  Task       86 on host nid004202 reporting.
  Task       87 on host nid004202 reporting.
  Task       88 on host nid004202 reporting.
  Task       89 on host nid004202 reporting.
  Task       90 on host nid004202 reporting.
  Task       91 on host nid004202 reporting.
  Task       92 on host nid004202 reporting.
  Task       93 on host nid004202 reporting.
  Task       94 on host nid004202 reporting.
  Task       95 on host nid004202 reporting.
  Task       96 on host nid004202 reporting.
  Task       97 on host nid004202 reporting.
  Task       98 on host nid004202 reporting.
  Task       99 on host nid004202 reporting.
  Task      100 on host nid004202 reporting.
  Task      101 on host nid004202 reporting.
  Task      102 on host nid004202 reporting.
  Task      103 on host nid004202 reporting.
  Task      104 on host nid004202 reporting.
  Task      105 on host nid004202 reporting.
  Task      106 on host nid004202 reporting.
  Task      107 on host nid004202 reporting.
  Task      108 on host nid004202 reporting.
  Task      109 on host nid004202 reporting.
  Task      110 on host nid004202 reporting.
  Task      111 on host nid004202 reporting.
  Task      112 on host nid004202 reporting.
  Task      113 on host nid004202 reporting.
  Task      114 on host nid004202 reporting.
  Task      115 on host nid004202 reporting.
  Task      116 on host nid004202 reporting.
  Task      117 on host nid004202 reporting.
  Task      118 on host nid004202 reporting.
  Task      119 on host nid004202 reporting.
  Task      120 on host nid004202 reporting.
  Task      121 on host nid004202 reporting.
  Task      122 on host nid004202 reporting.
  Task      123 on host nid004202 reporting.
  Task      124 on host nid004202 reporting.
  Task      125 on host nid004202 reporting.
  Task      126 on host nid004202 reporting.
  Task      127 on host nid004202 reporting.
  Task      128 on host nid004203 reporting.
  Task      129 on host nid004203 reporting.
  Task      130 on host nid004203 reporting.
  Task      131 on host nid004203 reporting.
  Task      132 on host nid004203 reporting.
  Task      133 on host nid004203 reporting.
  Task      134 on host nid004203 reporting.
  Task      135 on host nid004203 reporting.
  Task      136 on host nid004203 reporting.
  Task      137 on host nid004203 reporting.
  Task      138 on host nid004203 reporting.
  Task      139 on host nid004203 reporting.
  Task      140 on host nid004203 reporting.
  Task      141 on host nid004203 reporting.
  Task      142 on host nid004203 reporting.
  Task      143 on host nid004203 reporting.
  Task      144 on host nid004203 reporting.
  Task      145 on host nid004203 reporting.
  Task      146 on host nid004203 reporting.
  Task      147 on host nid004203 reporting.
  Task      148 on host nid004203 reporting.
  Task      149 on host nid004203 reporting.
  Task      150 on host nid004203 reporting.
  Task      151 on host nid004203 reporting.
  Task      152 on host nid004203 reporting.
  Task      153 on host nid004203 reporting.
  Task      154 on host nid004203 reporting.
  Task      155 on host nid004203 reporting.
  Task      156 on host nid004203 reporting.
  Task      157 on host nid004203 reporting.
  Task      158 on host nid004203 reporting.
  Task      159 on host nid004203 reporting.
  Task      160 on host nid004203 reporting.
  Task      161 on host nid004203 reporting.
  Task      162 on host nid004203 reporting.
  Task      163 on host nid004203 reporting.
  Task      164 on host nid004203 reporting.
  Task      165 on host nid004203 reporting.
  Task      166 on host nid004203 reporting.
  Task      167 on host nid004203 reporting.
  Task      168 on host nid004203 reporting.
  Task      169 on host nid004203 reporting.
  Task      170 on host nid004203 reporting.
  Task      171 on host nid004203 reporting.
  Task      172 on host nid004203 reporting.
  Task      173 on host nid004203 reporting.
  Task      174 on host nid004203 reporting.
  Task      175 on host nid004203 reporting.
  Task      176 on host nid004203 reporting.
  Task      177 on host nid004203 reporting.
  Task      178 on host nid004203 reporting.
  Task      179 on host nid004203 reporting.
  Task      180 on host nid004203 reporting.
  Task      181 on host nid004203 reporting.
  Task      182 on host nid004203 reporting.
  Task      183 on host nid004203 reporting.
  Task      184 on host nid004203 reporting.
  Task      185 on host nid004203 reporting.
  Task      186 on host nid004203 reporting.
  Task      187 on host nid004203 reporting.
  Task      188 on host nid004203 reporting.
  Task      189 on host nid004203 reporting.
  Task      190 on host nid004203 reporting.
  Task      191 on host nid004203 reporting.
  Task      192 on host nid004203 reporting.
  Task      193 on host nid004203 reporting.
  Task      194 on host nid004203 reporting.
  Task      195 on host nid004203 reporting.
  Task      196 on host nid004203 reporting.
  Task      197 on host nid004203 reporting.
  Task      198 on host nid004203 reporting.
  Task      199 on host nid004203 reporting.
  Task      200 on host nid004203 reporting.
  Task      201 on host nid004203 reporting.
  Task      202 on host nid004203 reporting.
  Task      203 on host nid004203 reporting.
  Task      204 on host nid004203 reporting.
  Task      205 on host nid004203 reporting.
  Task      206 on host nid004203 reporting.
  Task      207 on host nid004203 reporting.
  Task      208 on host nid004203 reporting.
  Task      209 on host nid004203 reporting.
  Task      210 on host nid004203 reporting.
  Task      211 on host nid004203 reporting.
  Task      212 on host nid004203 reporting.
  Task      213 on host nid004203 reporting.
  Task      214 on host nid004203 reporting.
  Task      215 on host nid004203 reporting.
  Task      216 on host nid004203 reporting.
  Task      217 on host nid004203 reporting.
  Task      218 on host nid004203 reporting.
  Task      219 on host nid004203 reporting.
  Task      220 on host nid004203 reporting.
  Task      221 on host nid004203 reporting.
  Task      222 on host nid004203 reporting.
  Task      223 on host nid004203 reporting.
  Task      224 on host nid004203 reporting.
  Task      225 on host nid004203 reporting.
  Task      226 on host nid004203 reporting.
  Task      227 on host nid004203 reporting.
  Task      228 on host nid004203 reporting.
  Task      229 on host nid004203 reporting.
  Task      230 on host nid004203 reporting.
  Task      231 on host nid004203 reporting.
  Task      232 on host nid004203 reporting.
  Task      233 on host nid004203 reporting.
  Task      234 on host nid004203 reporting.
  Task      235 on host nid004203 reporting.
  Task      236 on host nid004203 reporting.
  Task      237 on host nid004203 reporting.
  Task      238 on host nid004203 reporting.
  Task      239 on host nid004203 reporting.
  Task      240 on host nid004203 reporting.
  Task      241 on host nid004203 reporting.
  Task      242 on host nid004203 reporting.
  Task      243 on host nid004203 reporting.
  Task      244 on host nid004203 reporting.
  Task      245 on host nid004203 reporting.
  Task      246 on host nid004203 reporting.
  Task      247 on host nid004203 reporting.
  Task      248 on host nid004203 reporting.
  Task      249 on host nid004203 reporting.
  Task      250 on host nid004203 reporting.
  Task      251 on host nid004203 reporting.
  Task      252 on host nid004203 reporting.
  Task      253 on host nid004203 reporting.
  Task      254 on host nid004203 reporting.
  Task      255 on host nid004203 reporting.
  Task      256 on host nid004204 reporting.
  Task      257 on host nid004204 reporting.
  Task      258 on host nid004204 reporting.
  Task      259 on host nid004204 reporting.
  Task      260 on host nid004204 reporting.
  Task      261 on host nid004204 reporting.
  Task      262 on host nid004204 reporting.
  Task      263 on host nid004204 reporting.
  Task      264 on host nid004204 reporting.
  Task      265 on host nid004204 reporting.
  Task      266 on host nid004204 reporting.
  Task      267 on host nid004204 reporting.
  Task      268 on host nid004204 reporting.
  Task      269 on host nid004204 reporting.
  Task      270 on host nid004204 reporting.
  Task      271 on host nid004204 reporting.
  Task      272 on host nid004204 reporting.
  Task      273 on host nid004204 reporting.
  Task      274 on host nid004204 reporting.
  Task      275 on host nid004204 reporting.
  Task      276 on host nid004204 reporting.
  Task      277 on host nid004204 reporting.
  Task      278 on host nid004204 reporting.
  Task      279 on host nid004204 reporting.
  Task      280 on host nid004204 reporting.
  Task      281 on host nid004204 reporting.
  Task      282 on host nid004204 reporting.
  Task      283 on host nid004204 reporting.
  Task      284 on host nid004204 reporting.
  Task      285 on host nid004204 reporting.
  Task      286 on host nid004204 reporting.
  Task      287 on host nid004204 reporting.
  Task      288 on host nid004204 reporting.
  Task      289 on host nid004204 reporting.
  Task      290 on host nid004204 reporting.
  Task      291 on host nid004204 reporting.
  Task      292 on host nid004204 reporting.
  Task      293 on host nid004204 reporting.
  Task      294 on host nid004204 reporting.
  Task      295 on host nid004204 reporting.
  Task      296 on host nid004204 reporting.
  Task      297 on host nid004204 reporting.
  Task      298 on host nid004204 reporting.
  Task      299 on host nid004204 reporting.
  Task      300 on host nid004204 reporting.
  Task      301 on host nid004204 reporting.
  Task      302 on host nid004204 reporting.
  Task      303 on host nid004204 reporting.
  Task      304 on host nid004204 reporting.
  Task      305 on host nid004204 reporting.
  Task      306 on host nid004204 reporting.
  Task      307 on host nid004204 reporting.
  Task      308 on host nid004204 reporting.
  Task      309 on host nid004204 reporting.
  Task      310 on host nid004204 reporting.
  Task      311 on host nid004204 reporting.
  Task      312 on host nid004204 reporting.
  Task      313 on host nid004204 reporting.
  Task      314 on host nid004204 reporting.
  Task      315 on host nid004204 reporting.
  Task      316 on host nid004204 reporting.
  Task      317 on host nid004204 reporting.
  Task      318 on host nid004204 reporting.
  Task      319 on host nid004204 reporting.
  Task      320 on host nid004204 reporting.
  Task      321 on host nid004204 reporting.
  Task      322 on host nid004204 reporting.
  Task      323 on host nid004204 reporting.
  Task      324 on host nid004204 reporting.
  Task      325 on host nid004204 reporting.
  Task      326 on host nid004204 reporting.
  Task      327 on host nid004204 reporting.
  Task      328 on host nid004204 reporting.
  Task      329 on host nid004204 reporting.
  Task      330 on host nid004204 reporting.
  Task      331 on host nid004204 reporting.
  Task      332 on host nid004204 reporting.
  Task      333 on host nid004204 reporting.
  Task      334 on host nid004204 reporting.
  Task      335 on host nid004204 reporting.
  Task      336 on host nid004204 reporting.
  Task      337 on host nid004204 reporting.
  Task      338 on host nid004204 reporting.
  Task      339 on host nid004204 reporting.
  Task      340 on host nid004204 reporting.
  Task      341 on host nid004204 reporting.
  Task      342 on host nid004204 reporting.
  Task      343 on host nid004204 reporting.
  Task      344 on host nid004204 reporting.
  Task      345 on host nid004204 reporting.
  Task      346 on host nid004204 reporting.
  Task      347 on host nid004204 reporting.
  Task      348 on host nid004204 reporting.
  Task      349 on host nid004204 reporting.
  Task      350 on host nid004204 reporting.
  Task      351 on host nid004204 reporting.
  Task      352 on host nid004204 reporting.
  Task      353 on host nid004204 reporting.
  Task      354 on host nid004204 reporting.
  Task      355 on host nid004204 reporting.
  Task      356 on host nid004204 reporting.
  Task      357 on host nid004204 reporting.
  Task      358 on host nid004204 reporting.
  Task      359 on host nid004204 reporting.
  Task      360 on host nid004204 reporting.
  Task      361 on host nid004204 reporting.
  Task      362 on host nid004204 reporting.
  Task      363 on host nid004204 reporting.
  Task      364 on host nid004204 reporting.
  Task      365 on host nid004204 reporting.
  Task      366 on host nid004204 reporting.
  Task      367 on host nid004204 reporting.
  Task      368 on host nid004204 reporting.
  Task      369 on host nid004204 reporting.
  Task      370 on host nid004204 reporting.
  Task      371 on host nid004204 reporting.
  Task      372 on host nid004204 reporting.
  Task      373 on host nid004204 reporting.
  Task      374 on host nid004204 reporting.
  Task      375 on host nid004204 reporting.
  Task      376 on host nid004204 reporting.
  Task      377 on host nid004204 reporting.
  Task      378 on host nid004204 reporting.
  Task      379 on host nid004204 reporting.
  Task      380 on host nid004204 reporting.
  Task      381 on host nid004204 reporting.
  Task      382 on host nid004204 reporting.
  Task      383 on host nid004204 reporting.
  Task      384 on host nid004205 reporting.
  Task      385 on host nid004205 reporting.
  Task      386 on host nid004205 reporting.
  Task      387 on host nid004205 reporting.
  Task      388 on host nid004205 reporting.
  Task      389 on host nid004205 reporting.
  Task      390 on host nid004205 reporting.
  Task      391 on host nid004205 reporting.
  Task      392 on host nid004205 reporting.
  Task      393 on host nid004205 reporting.
  Task      394 on host nid004205 reporting.
  Task      395 on host nid004205 reporting.
  Task      396 on host nid004205 reporting.
  Task      397 on host nid004205 reporting.
  Task      398 on host nid004205 reporting.
  Task      399 on host nid004205 reporting.
  Task      400 on host nid004205 reporting.
  Task      401 on host nid004205 reporting.
  Task      402 on host nid004205 reporting.
  Task      403 on host nid004205 reporting.
  Task      404 on host nid004205 reporting.
  Task      405 on host nid004205 reporting.
  Task      406 on host nid004205 reporting.
  Task      407 on host nid004205 reporting.
  Task      408 on host nid004205 reporting.
  Task      409 on host nid004205 reporting.
  Task      410 on host nid004205 reporting.
  Task      411 on host nid004205 reporting.
  Task      412 on host nid004205 reporting.
  Task      413 on host nid004205 reporting.
  Task      414 on host nid004205 reporting.
  Task      415 on host nid004205 reporting.
  Task      416 on host nid004205 reporting.
  Task      417 on host nid004205 reporting.
  Task      418 on host nid004205 reporting.
  Task      419 on host nid004205 reporting.
  Task      420 on host nid004205 reporting.
  Task      421 on host nid004205 reporting.
  Task      422 on host nid004205 reporting.
  Task      423 on host nid004205 reporting.
  Task      424 on host nid004205 reporting.
  Task      425 on host nid004205 reporting.
  Task      426 on host nid004205 reporting.
  Task      427 on host nid004205 reporting.
  Task      428 on host nid004205 reporting.
  Task      429 on host nid004205 reporting.
  Task      430 on host nid004205 reporting.
  Task      431 on host nid004205 reporting.
  Task      432 on host nid004205 reporting.
  Task      433 on host nid004205 reporting.
  Task      434 on host nid004205 reporting.
  Task      435 on host nid004205 reporting.
  Task      436 on host nid004205 reporting.
  Task      437 on host nid004205 reporting.
  Task      438 on host nid004205 reporting.
  Task      439 on host nid004205 reporting.
  Task      440 on host nid004205 reporting.
  Task      441 on host nid004205 reporting.
  Task      442 on host nid004205 reporting.
  Task      443 on host nid004205 reporting.
  Task      444 on host nid004205 reporting.
  Task      445 on host nid004205 reporting.
  Task      446 on host nid004205 reporting.
  Task      447 on host nid004205 reporting.
  Task      448 on host nid004205 reporting.
  Task      449 on host nid004205 reporting.
  Task      450 on host nid004205 reporting.
  Task      451 on host nid004205 reporting.
  Task      452 on host nid004205 reporting.
  Task      453 on host nid004205 reporting.
  Task      454 on host nid004205 reporting.
  Task      455 on host nid004205 reporting.
  Task      456 on host nid004205 reporting.
  Task      457 on host nid004205 reporting.
  Task      458 on host nid004205 reporting.
  Task      459 on host nid004205 reporting.
  Task      460 on host nid004205 reporting.
  Task      461 on host nid004205 reporting.
  Task      462 on host nid004205 reporting.
  Task      463 on host nid004205 reporting.
  Task      464 on host nid004205 reporting.
  Task      465 on host nid004205 reporting.
  Task      466 on host nid004205 reporting.
  Task      467 on host nid004205 reporting.
  Task      468 on host nid004205 reporting.
  Task      469 on host nid004205 reporting.
  Task      470 on host nid004205 reporting.
  Task      471 on host nid004205 reporting.
  Task      472 on host nid004205 reporting.
  Task      473 on host nid004205 reporting.
  Task      474 on host nid004205 reporting.
  Task      475 on host nid004205 reporting.
  Task      476 on host nid004205 reporting.
  Task      477 on host nid004205 reporting.
  Task      478 on host nid004205 reporting.
  Task      479 on host nid004205 reporting.
  Task      480 on host nid004205 reporting.
  Task      481 on host nid004205 reporting.
  Task      482 on host nid004205 reporting.
  Task      483 on host nid004205 reporting.
  Task      484 on host nid004205 reporting.
  Task      485 on host nid004205 reporting.
  Task      486 on host nid004205 reporting.
  Task      487 on host nid004205 reporting.
  Task      488 on host nid004205 reporting.
  Task      489 on host nid004205 reporting.
  Task      490 on host nid004205 reporting.
  Task      491 on host nid004205 reporting.
  Task      492 on host nid004205 reporting.
  Task      493 on host nid004205 reporting.
  Task      494 on host nid004205 reporting.
  Task      495 on host nid004205 reporting.
  Task      496 on host nid004205 reporting.
  Task      497 on host nid004205 reporting.
  Task      498 on host nid004205 reporting.
  Task      499 on host nid004205 reporting.
  Task      500 on host nid004205 reporting.
  Task      501 on host nid004205 reporting.
  Task      502 on host nid004205 reporting.
  Task      503 on host nid004205 reporting.
  Task      504 on host nid004205 reporting.
  Task      505 on host nid004205 reporting.
  Task      506 on host nid004205 reporting.
  Task      507 on host nid004205 reporting.
  Task      508 on host nid004205 reporting.
  Task      509 on host nid004205 reporting.
  Task      510 on host nid004205 reporting.
  Task      511 on host nid004205 reporting.

  Performing system and environment tests:
  | Environment variable OMP_NUM_THREADS correctly set to 1.
  | Checking for ScaLAPACK...
  | Testing pdtran()...
  | All pdtran() tests passed.

  Obtaining array dimensions for all initial allocations:
  
  -----------------------------------------------------------------------
  Parsing control.in (first pass over file, find array dimensions only).
  The contents of control.in will be repeated verbatim below
  unless switched off by setting 'verbatim_writeout .false.' .
  in the first line of control.in .
  -----------------------------------------------------------------------
  
  xc                 pbe
  vdw_correction_hirshfeld_alkali
  spin               none
  relativistic       atomic_zora scalar
  
  #k-points
  k_grid	2	2	2
  
  # SCF convergence
  occupation_type    gaussian 0.01
  mixer              pulay
  n_max_pulay        8            # default value 8
  charge_mix_param   0.2          # non-metallic conservative value
  
  #sc_accuracy_eev    1E-3        # default not used
  #sc_accuracy_rho    1E-6        # not specified: has own checking criteria // using default: 1E-6 * SQRT(N/6)
  #sc_accuracy_etot   1E-5	# default not used
  sc_accuracy_forces 1E-4	# default 'not_checked'
  #sc_accuracy_forces not_checked  # not-checked: only relies on default 'rho' checker .. i.e., 'rho' should be better ?
  
  sc_iter_limit   4000
  
  # Relaxation
  #relax_unit_cell  full
  #relax_geometry   bfgs 1.e-3
  
  ################################################################################
  #
  #  FHI-aims code project
  #  Volker Blum, 2017
  #
  #  Suggested "intermediate" defaults for Pb atom (to be pasted into control.in file)
  #
  ################################################################################
    species        Pb
  #     global species definitions
      nucleus             82
      mass                207.2
  #
      l_hartree           6
  #
      cut_pot             4.0  2.0  1.0
      basis_dep_cutoff    1e-4
  #
      radial_base         74 7.0
      radial_multiplier   2
      angular_grids specified
        division   0.1064  110
        division   0.1579  194
        division   0.2150  302
        division   1.0164  434
  #      division   1.1544  590
  #      division   1.1970  770
  #      division   7.7779  974
  #      outer_grid  974
        outer_grid  434
   ################################################################################
  #
  #  Definition of "minimal" basis
  #
  ################################################################################
  #     valence basis states
      valence      6  s   2.
      valence      6  p   2.
      valence      5  d  10.
      valence      4  f  14.
  #     ion occupancy
      ion_occ     6  s    1.
      ion_occ     6  p    1.
      ion_occ     5  d   10.
      ion_occ     4  f   14.
  ################################################################################
  #
  #  Suggested additional basis functions. For production calculations,
  #  uncomment them one after another (the most important basis functions are
  #  listed first).
  #
  #  Constructed for dimers: 2.225, 2.50, 2.88, 3.625, 4.50
  #
  ################################################################################
  #  "First tier" - max. impr. -156.54 meV, min. impr. -14.49 meV
       hydro 3 p 2.3
       hydro 4 f 7.6
       hydro 3 d 3.5
       for_aux    hydro 5 g 9.8
       hydro 3 s 3.2
  #  "Second tier" - max. impr. -4.38  meV, min. impr. -0.30 meV
  #     hydro 6 h 12.8
  #     hydro 3 d 2.4
  #     hydro 5 f 7.2
  #     hydro 5 f 14.8
  #     hydro 4 p 5.4
  #     ionic 6 s auto
  #  "Third tier" - max. impr. -0.86 meV, min. impr. -0.16 meV
  #     hydro 5 p 14.4
  #     hydro 5 g 8.2
  #     hydro 4 d 4.6
  #     hydro 6 h 12.4
  #     hydro 6 d 12.4
  #     hydro 4 s 4
  #     hydro 5 g 32.8
  #     hydro 5 f 9.4
  #  Further functions: -0.10 meV and below
  #     hydro 5 f 17.6
  #     hydro 7 p 19.6
  ################################################################################
  #
  #  FHI-aims code project
  #  Volker Blum, Fritz Haber Institute Berlin, 2009
  #  Tong Zhu, Will Huhn and Volker Blum, Duke University 2018
  #
  #  Suggested "intermediate" defaults for Cs atom (to be pasted into control.in file)
  #
  #  Rb, Sr, Cs and Ba are very large atoms. This requires uncomfortably large
  #  cut_pot radii (the high cut_pot values are especially costly for hybrid DFT
  #  calculations, both regarding time and memory). Additionally, since they are
  #  relatively heavy elements, high-accuracy basis set convergence actually
  #  requires more radial functions than for their light-element counterparts.
  #
  #  Compared to the "tight" settings, the "intermediate" settings for Cs are
  #  reduced in the following way:
  #
  #  - cut_pot from 6.0 Angstrom to 5.5 Angstrom
  #
  #  The cut_pot value has a noticeable effect particularly for neutral situations
  #  (the Cs dimer is a good example) and we were not comfortable with reducing it more.
  #  ("intermediate" still implies high accuracy.) However, a comparison to the "light"
  #  settings (which are not crazy) shows that further reductions are possible in many
  #  situations, if the cut_pot value for Cs is the bottleneck. (Note that some internal
  #  cutoffs in current FHI-aims are set according to the largest atom, and so in principle,
  #  even a single Cs atom in a large structure can have a noticeable effect on memory and
  #  speed.)
  #
  ################################################################################
    species          Cs
  #     global species definitions
      nucleus        55
      mass           132.9054519
  #
      l_hartree      6
  #
      cut_pot        5.5  2.0  1.0
      basis_dep_cutoff    1e-4
  #
      radial_base    65  7.0
      radial_multiplier  2
      angular_grids specified
        division   0.7542  110
        division   1.0056  194
        division   1.2887  302
        division   1.4138  434
  #      division   1.5042  590
  #      division   1.6519  770
  #      outer_grid  974
        outer_grid  434
  ################################################################################
  #
  #  Definition of "minimal" basis
  #
  ################################################################################
  #     valence basis states
      valence      6  s   1.
      valence      5  p   6.
      valence      4  d  10.
  #     ion occupancy
      ion_occ      6  s   0.
      ion_occ      5  p   6.
      ion_occ      4  d  10.
  ################################################################################
  #
  #  Suggested additional basis functions. For production calculations,
  #  uncomment them one after another (the most important basis functions are
  #  listed first).
  #
  #  Constructed for dimers: 2.70, 3.50, 4.50, 5.50 Ang
  #
  ################################################################################
  #  "First tier" - improvements: -138.41 meV to -7.10 meV
       hydro 3 d 3.9
       hydro 4 f 6.4
       hydro 3 p 2.3
       hydro 4 s 2.7
  #  "Second tier" - improvements: -6.08 meV to -0.77 meV
       hydro 4 d 3.9
  #     hydro 4 f 20.8
  #     hydro 5 g 8.6
  #     hydro 5 f 41.6
  #     hydro 6 h 11.6
  #     hydro 4 p 7.0
  #     hydro 4 s 3.8
  #  "Third tier" - max. impr. -0.54 meV, min. impr. -0.09 meV
  #     hydro 5 d 10
  #     hydro 5 f 17.6
  #     hydro 4 p 3.5
  #     hydro 5 f 7.4
  #     hydro 1 s 2.3
  #     hydro 5 g 11.6
  #  One more function - impr. -0.05 meV
  #     hydro 6 d 17.2
  ################################################################################
  #
  #  FHI-aims code project
  #  Volker Blum, 2018
  #
  #  Suggested "intermediate" defaults for Br atom (to be pasted into control.in file)
  #
  #  2020/09/15 These "intermediate" settings are identical to past "tight" defaults
  #             and differ only in the "g" function that is now included in "tight".
  #
  ################################################################################
    species        Br
  #     global species definitions
      nucleus             35
      mass                79.904
  #
      l_hartree           6
  #
      cut_pot             4.0          2.0  1.0
      basis_dep_cutoff    1e-4
  #
      radial_base         56 7.0
      radial_multiplier   2
      angular_grids       specified
        division   0.0871  110
        division   0.1400  194
        division   0.7896  302
        division   0.8837  434
  #      division   0.9869  590
  #      division   1.0613  770
  #      division   2.6835  974
  #      outer_grid  974
        outer_grid  434
  ################################################################################
  #
  #  Definition of "minimal" basis
  #
  ################################################################################
  #     valence basis states
      valence      4  s   2.
      valence      4  p   5.
      valence      3  d  10.
  #     ion occupancy
      ion_occ      4  s   1.
      ion_occ      4  p   4.
      ion_occ      3  d  10.
  ################################################################################
  #
  #  Suggested additional basis functions. For production calculations,
  #  uncomment them one after another (the most important basis functions are
  #  listed first).
  #
  #  Constructed for dimers: 1.90 A, 2.25 A, 2.75 A, 3.25 A, 4.00 A
  #
  ################################################################################
  #  "First tier" - improvements: -247.24 meV to -20.97 meV
       hydro 3 d 4.6
       hydro 2 p 1.7
       hydro 4 f 7.6
       ionic 4 s auto
  #  "Second tier" - improvements: -9.01 meV to -0.73 meV
  #     hydro 5 g 10.4
  #     hydro 3 d 4.1
  #     hydro 6 h 14.8
  #     hydro 4 p 4.7
  #     hydro 1 s 0.7
  #     hydro 4 f 12.4
  #  "Third tier" - improvements: -0.26 meV and below
  #     hydro 5 f 14.8
  #     hydro 5 d 7.8
  #     hydro 5 g 14.4
  #     ionic 4 p auto
  #     hydro 3 s 3.2
  #  "Fourth tier" - improvements: -0.09 meV and below
  #     hydro 5 f 25.6
  #     hydro 5 d 11.2
  #     hydro 3 p 3.9
  #     hydro 6 h 16.8
  #     hydro 5 g 13.2
  #     hydro 5 s 5.4
  ################################################################################
  #
  #  FHI-aims code project
  #  Volker Blum, 2018
  #
  #  Suggested "intermediate" defaults for I atom (to be pasted into control.in file)
  #
  #  2020/09/15 These "intermediate" settings are identical to past "tight" defaults
  #             and differ only in the "g" function that is now included in "tight".
  #
  ################################################################################
    species          I
  #     global species definitions
      nucleus        53
      mass           126.90447
  #
      l_hartree      6
  #
      cut_pot        4.0  2.0  1.0
      basis_dep_cutoff    1e-4
  #
      radial_base    64  7.0
      radial_multiplier  2
      angular_grids specified
        division   0.1103  110
        division   0.1515  194
        division   0.9554  302
  #      division   1.1196  590
  #      division   1.1922  770
  #      division   6.1948  974
  #      outer_grid  974
        outer_grid  434
  ################################################################################
  #
  #  Definition of "minimal" basis
  #
  ################################################################################
  #     valence basis states
      valence      5  s   2.
      valence      5  p   5.
      valence      4  d  10.
  #     ion occupancy
      ion_occ      5  s   1.
      ion_occ      5  p   4.
      ion_occ      4  d  10.
  ################################################################################
  #
  #  Suggested additional basis functions. For production calculations,
  #  uncomment them one after another (the most important basis functions are
  #  listed first).
  #
  #  Constructed for dimers: 2.22, 2.65, 3.25, 4.25 Ang
  #
  ################################################################################
  #  "First tier" - improvements: -270.74 meV to -21.24 meV
       hydro 3 d 4
       hydro 4 f 6.4
       hydro 2 p 1.6
       ionic 5 s auto
  #  "Second tier" - improvements: -16.39 meV to -0.39 meV
  #     hydro 5 g 9.4
  #     hydro 4 f 18.4
  #     hydro 6 h 12.4
  #     hydro 4 p 4.5
  #     hydro 3 d 4.2
  #     hydro 3 s 3.0
  #  "Third tier" - max. impr. -0.76 meV, min. impr. -0.06 meV
  #     hydro 5 f 15.6
  #     hydro 5 g 12
  #     hydro 5 d 16
  #     hydro 4 f 42
  #     hydro 6 h 15.2
  #     ionic 5 p auto
  #     hydro 1 s 6.2
  #  Further functions that fell out of the optimization: -0.10 meV and below
  #     hydro 4 f 7
  #     hydro 6 p 9
  #     hydro 2 s 6.4
  
  -----------------------------------------------------------------------
  Completed first pass over input file control.in .
  -----------------------------------------------------------------------
  
  
  -----------------------------------------------------------------------
  Parsing geometry.in (first pass over file, find array dimensions only).
  The contents of geometry.in will be repeated verbatim below
  unless switched off by setting 'verbatim_writeout .false.' .
  in the first line of geometry.in .
  -----------------------------------------------------------------------
  
  lattice_vector    12.43032504    0.00021855    0.11298060
  lattice_vector    -0.00014374   12.42563348   -0.00034144
  lattice_vector     0.11208347    0.00041006   12.43041655
  atom_frac    -0.03128758    0.00045081   -0.01934239  Cs
  atom_frac    -0.02257396    0.00046234    0.47190517  Cs
  atom_frac     0.03208703    0.50044876    0.02652562  Cs
  atom_frac     0.02330670    0.50045361    0.53528190  Cs
  atom_frac     0.47748061    0.00045712   -0.02809107  Cs
  atom_frac     0.46868577    0.00045824    0.48068021  Cs
  atom_frac     0.52334621    0.50045736    0.03531122  Cs
  atom_frac     0.53207055    0.50045380    0.52654812  Cs
  atom_frac     0.25039141    0.25046558    0.25359056  Pb
  atom_frac     0.25039654    0.25044385    0.75359199  Pb
  atom_frac     0.25038114    0.75046365    0.25361241  Pb
  atom_frac     0.25039278    0.75043325    0.75360571  Pb
  atom_frac     0.75038687    0.25047492    0.25359658  Pb
  atom_frac     0.75040333    0.25044377    0.75359804  Pb
  atom_frac     0.75036703    0.75046915    0.25360906  Pb
  atom_frac     0.75038141    0.75042328    0.75360290  Pb
  atom_frac     0.30079257    0.29197736    0.00246444   I
  atom_frac     0.20000998    0.20891575    0.50471970   I
  atom_frac     0.30078323    0.70892439    0.00247564   I
  atom_frac     0.19997362    0.79196183    0.50472667   I
  atom_frac     0.69999513    0.20897296    0.00472794   I
  atom_frac     0.80080575    0.29192157    0.50247554   I
  atom_frac     0.69996243    0.79190807    0.00472882   I
  atom_frac     0.80079614    0.70897556    0.50247928   I
  atom_frac     0.29940477    0.00045839    0.21969749   I
  atom_frac     0.21653845    0.00043703    0.80260483   I
  atom_frac     0.20137823    0.50045705    0.28748853   I
  atom_frac     0.28423908    0.50043991    0.70457490   I
  atom_frac     0.71646277    0.00046309    0.30257151   I
  atom_frac     0.79935426    0.00043579    0.71972504   I
  atom_frac     0.78430915    0.50046605    0.20464627   I
  atom_frac     0.70140518    0.50043473    0.78748984   I
  atom_frac     0.00151030    0.20892107    0.20321964   I
  atom_frac    -0.00072869    0.29191773    0.80401483   I
  atom_frac     0.00150063    0.79197380    0.20320881   I
  atom_frac    -0.00073848    0.70896532    0.80401650   I
  atom_frac     0.49925932    0.29198096    0.30400375   I
  atom_frac     0.50152783    0.20896715    0.70319277   I
  atom_frac     0.49925032    0.70892915    0.30400442   I
  atom_frac     0.50151483    0.79190907    0.70317074   I
  
  -----------------------------------------------------------------------
  Completed first pass over input file geometry.in .
  -----------------------------------------------------------------------
  

  Basic array size parameters:
  | Number of species                 :        4
  | Number of atoms                   :       40
  | Number of lattice vectors         :        3
  | Max. basis fn. angular momentum   :        4
  | Max. atomic/ionic basis occupied n:        6
  | Max. number of basis fn. types    :        3
  | Max. radial fns per species/type  :       15
  | Max. logarithmic grid size        :     1491
  | Max. radial integration grid size :      149
  | Max. angular integration grid size:      434
  | Max. angular grid division number :        8
  | Radial grid for Hartree potential :     1491
  | Number of spin channels           :        1

------------------------------------------------------------
          Reading file control.in.
------------------------------------------------------------
  XC: Using PBE gradient-corrected functionals.
  Spin treatment: No spin polarisation.
  Scalar relativistic treatment of kinetic energy: on-site free-atom approximation to ZORA.
  Found k-point grid:         2         2         2
  Occupation type: Gaussian broadening, width =   0.100000E-01 eV.
  Using pulay charge density mixing.
  Pulay mixing - number of memorized iterations:    8
  Charge density mixing - mixing parameter:     0.2000
  Convergence accuracy of forces:  0.1000E-03
  Maximum number of s.-c. iterations  :  4000

  Reading configuration options for species Pb                  .
  | Found nuclear charge :  82.0000
  | Found atomic mass :    207.19999999999999      amu
  | Found l_max for Hartree potential  :   6
  | Found cutoff potl. onset [A], width [A], scale factor :    4.00000    2.00000    1.00000
  | Threshold for basis-dependent cutoff potential is   0.100000E-03
  | Found data for basic radial integration grid :    74 points, outermost radius =    7.000 A
  | Found multiplier for basic radial grid :   2
  | Found angular grid specification: user-specified.
  | Specified grid contains     5 separate shells.
  | Check grid settings after all constraints further below.
  | Found free-atom valence shell :  6 s   2.000
  | Found free-atom valence shell :  6 p   2.000
  | Found free-atom valence shell :  5 d  10.000
  | Found free-atom valence shell :  4 f  14.000
  | Found free-ion valence shell :  6 s   1.000
  | Found free-ion valence shell :  6 p   1.000
  | Found free-ion valence shell :  5 d  10.000
  | Found free-ion valence shell :  4 f  14.000
  | Found hydrogenic basis function :  3 p   2.300
  | Found hydrogenic basis function :  4 f   7.600
  | Found hydrogenic basis function :  3 d   3.500
  | Found hydrogenic extended basis function :  5 g   9.800
  | Found hydrogenic basis function :  3 s   3.200
  Species Pb                  : Missing cutoff potential type.
  Defaulting to exp(1/x)/(1-x)^2 type cutoff potential.
  Species Pb: No 'logarithmic' tag. Using default grid for free atom:
  | Default logarithmic grid data [bohr] : 0.1000E-03 0.1000E+03 0.1012E+01
  Species Pb: On-site basis accuracy parameter (for Gram-Schmidt orthonormalisation) not specified.
  Using default value basis_acc =  0.1000000E-03.
  Species Pb                  : Using default innermost maximum threshold i_radial=  2 for radial functions.
  Species Pb                  : Default cutoff onset for free atom density etc. : 0.40000000E+01 AA.
  Species Pb                  : Basic radial grid will be enhanced according to radial_multiplier =   2, to contain   149 grid points.

  Reading configuration options for species Cs                  .
  | Found nuclear charge :  55.0000
  | Found atomic mass :    132.90545190000000      amu
  | Found l_max for Hartree potential  :   6
  | Found cutoff potl. onset [A], width [A], scale factor :    5.50000    2.00000    1.00000
  | Threshold for basis-dependent cutoff potential is   0.100000E-03
  | Found data for basic radial integration grid :    65 points, outermost radius =    7.000 A
  | Found multiplier for basic radial grid :   2
  | Found angular grid specification: user-specified.
  | Specified grid contains     5 separate shells.
  | Check grid settings after all constraints further below.
  | Found free-atom valence shell :  6 s   1.000
  | Found free-atom valence shell :  5 p   6.000
  | Found free-atom valence shell :  4 d  10.000
  | Found free-ion valence shell :  6 s   0.000
  | Found free-ion valence shell :  5 p   6.000
  | Found free-ion valence shell :  4 d  10.000
  | Found hydrogenic basis function :  3 d   3.900
  | Found hydrogenic basis function :  4 f   6.400
  | Found hydrogenic basis function :  3 p   2.300
  | Found hydrogenic basis function :  4 s   2.700
  | Found hydrogenic basis function :  4 d   3.900
  Species Cs                  : Missing cutoff potential type.
  Defaulting to exp(1/x)/(1-x)^2 type cutoff potential.
  Species Cs: No 'logarithmic' tag. Using default grid for free atom:
  | Default logarithmic grid data [bohr] : 0.1000E-03 0.1000E+03 0.1012E+01
  Species Cs: On-site basis accuracy parameter (for Gram-Schmidt orthonormalisation) not specified.
  Using default value basis_acc =  0.1000000E-03.
  Species Cs                  : Using default innermost maximum threshold i_radial=  2 for radial functions.
  Species Cs                  : Default cutoff onset for free atom density etc. : 0.55000000E+01 AA.
  Species Cs                  : Basic radial grid will be enhanced according to radial_multiplier =   2, to contain   131 grid points.

  Reading configuration options for species Br                  .
  | Found nuclear charge :  35.0000
  | Found atomic mass :    79.903999999999996      amu
  | Found l_max for Hartree potential  :   6
  | Found cutoff potl. onset [A], width [A], scale factor :    4.00000    2.00000    1.00000
  | Threshold for basis-dependent cutoff potential is   0.100000E-03
  | Found data for basic radial integration grid :    56 points, outermost radius =    7.000 A
  | Found multiplier for basic radial grid :   2
  | Found angular grid specification: user-specified.
  | Specified grid contains     5 separate shells.
  | Check grid settings after all constraints further below.
  | Found free-atom valence shell :  4 s   2.000
  | Found free-atom valence shell :  4 p   5.000
  | Found free-atom valence shell :  3 d  10.000
  | Found free-ion valence shell :  4 s   1.000
  | Found free-ion valence shell :  4 p   4.000
  | Found free-ion valence shell :  3 d  10.000
  | Found hydrogenic basis function :  3 d   4.600
  | Found hydrogenic basis function :  2 p   1.700
  | Found hydrogenic basis function :  4 f   7.600
  | Found ionic basis function :  4 s , default cutoff radius.
  Species Br                  : Missing cutoff potential type.
  Defaulting to exp(1/x)/(1-x)^2 type cutoff potential.
  Species Br: No 'logarithmic' tag. Using default grid for free atom:
  | Default logarithmic grid data [bohr] : 0.1000E-03 0.1000E+03 0.1012E+01
  | Will include ionic basis functions of  2.0-fold positive Br                   ion.
  Species Br: On-site basis accuracy parameter (for Gram-Schmidt orthonormalisation) not specified.
  Using default value basis_acc =  0.1000000E-03.
  Species Br                  : Using default innermost maximum threshold i_radial=  2 for radial functions.
  Species Br                  : Default cutoff onset for free atom density etc. : 0.40000000E+01 AA.
  Species Br                  : Basic radial grid will be enhanced according to radial_multiplier =   2, to contain   113 grid points.

  Reading configuration options for species I                   .
  | Found nuclear charge :  53.0000
  | Found atomic mass :    126.90447000000000      amu
  | Found l_max for Hartree potential  :   6
  | Found cutoff potl. onset [A], width [A], scale factor :    4.00000    2.00000    1.00000
  | Threshold for basis-dependent cutoff potential is   0.100000E-03
  | Found data for basic radial integration grid :    64 points, outermost radius =    7.000 A
  | Found multiplier for basic radial grid :   2
  | Found angular grid specification: user-specified.
  | Specified grid contains     4 separate shells.
  | Check grid settings after all constraints further below.
  | Found free-atom valence shell :  5 s   2.000
  | Found free-atom valence shell :  5 p   5.000
  | Found free-atom valence shell :  4 d  10.000
  | Found free-ion valence shell :  5 s   1.000
  | Found free-ion valence shell :  5 p   4.000
  | Found free-ion valence shell :  4 d  10.000
  | Found hydrogenic basis function :  3 d   4.000
  | Found hydrogenic basis function :  4 f   6.400
  | Found hydrogenic basis function :  2 p   1.600
  | Found ionic basis function :  5 s , default cutoff radius.
  Species I                   : Missing cutoff potential type.
  Defaulting to exp(1/x)/(1-x)^2 type cutoff potential.
  Species I : No 'logarithmic' tag. Using default grid for free atom:
  | Default logarithmic grid data [bohr] : 0.1000E-03 0.1000E+03 0.1012E+01
  | Will include ionic basis functions of  2.0-fold positive I                    ion.
  Species I : On-site basis accuracy parameter (for Gram-Schmidt orthonormalisation) not specified.
  Using default value basis_acc =  0.1000000E-03.
  Species I                   : Using default innermost maximum threshold i_radial=  2 for radial functions.
  Species I                   : Default cutoff onset for free atom density etc. : 0.40000000E+01 AA.
  Species I                   : Basic radial grid will be enhanced according to radial_multiplier =   2, to contain   129 grid points.

  Finished reading input file 'control.in'.

------------------------------------------------------------


------------------------------------------------------------
          Reading geometry description geometry.in.
------------------------------------------------------------
  | The smallest distance between any two atoms is         3.19182003 AA.
  | The first atom of this pair is atom number                     16 .
  | The second atom of this pair is atom number                    32 .
  | Wigner-Seitz cell of the first atom image           0     0     0 .
  | (The Wigner-Seitz cell of the second atom is 0 0 0  by definition.)

  Symmetry information by spglib:
  | Precision set to  0.1E-04
  | Number of Operations  : 1
  | Space group           : 1
  | International         : P1 n
  | Schoenflies           : C1^1
  Input structure read successfully.
  The structure contains       40 atoms,  and a total of       2368.000 electrons.

  Input geometry:
  | Unit cell:
  |       12.43032504        0.00021855        0.11298060
  |       -0.00014374       12.42563348       -0.00034144
  |        0.11208347        0.00041006       12.43041655
  | Atomic structure:
  |       Atom                x [A]            y [A]            z [A]
  |    1: Species Cs           -0.39108282        0.00558683       -0.24396901
  |    2: Species Cs           -0.22770896        0.00593344        5.86342726
  |    3: Species Cs            0.40175336        6.21841076        0.33317884
  |    4: Species Cs            0.34963417        6.21867772        6.65623932
  |    5: Species Cs            5.93209057        0.00577284       -0.29523781
  |    6: Species Cs            5.87979270        0.00599346        6.02800748
  |    7: Species Cs            6.50924937        6.21862858        0.49789027
  |    8: Species Cs            6.67275529        6.21878769        6.60515524
  |    9: Species Pb            3.14083392        3.11235221        3.18044015
  |   10: Species Pb            3.19693959        3.11228723        9.39566678
  |   11: Species Pb            3.14063684        9.32514497        3.18053987
  |   12: Species Pb            3.19682252        9.32497226        9.39566619
  |   13: Species Pb            9.35594068        3.11257754        3.23700476
  |   14: Species Pb            9.41218719        3.11239551        9.45223306
  |   15: Species Pb            9.35562359        9.32532258        3.23698693
  |   16: Species Pb            9.41184339        9.32495765        9.45212028
  |   17: Species I             3.73918367        3.62807041        0.06451805
  |   18: Species I             2.54272977        2.59616122        6.29640203
  |   19: Species I             3.73900889        8.80890139        0.06451385
  |   20: Species I             2.54219478        9.84087810        6.29628548
  |   21: Species I             8.70166688        2.59677633        0.13778478
  |   22: Species I            10.01055301        3.62769149        6.33635611
  |   23: Species I             8.70117671        9.84011434        0.13759299
  |   24: Species I            10.01037402        8.80985152        6.33625911
  |   25: Species I             3.74632300        0.00585131        2.76475809
  |   26: Species I             2.78160199        0.00580682       10.00117686
  |   27: Species I             2.53534763        6.21865777        3.59618314
  |   28: Species I             3.61208342        6.21863394        8.79010213
  |   29: Species I             8.93977831        0.00603484        3.84203614
  |   30: Species I            10.01690249        0.00588480        9.03679342
  |   31: Species I             9.77208319        6.21886303        2.63227922
  |   32: Species I             8.80688703        6.21869475        9.86790105
  |   33: Species I             0.04152105        2.59606030        2.52620408
  |   34: Species I             0.08101696        3.62759225        9.99405725
  |   35: Species I             0.04131583        9.84085982        2.52586929
  |   36: Species I             0.08083551        8.80967275        9.99393451
  |   37: Species I             6.23998745        3.62828217        3.83520017
  |   38: Species I             6.31294019        2.59694718        8.79757061
  |   39: Species I             6.23981572        8.80912755        3.83506512
  |   40: Species I             6.31269234        9.84036980        8.79709626

  Lattice parameters for 3D lattice (in Angstroms) :    12.430838   12.425633   12.430922
  Angle(s) between unit vectors (in degrees)       :    89.999690   88.962632   89.999670


  Quantities derived from the lattice vectors:
  | Reciprocal lattice vector 1:  0.505514  0.000006 -0.004558
  | Reciprocal lattice vector 2: -0.000009  0.505663 -0.000017
  | Reciprocal lattice vector 3: -0.004595  0.000014  0.505510
  | Unit cell volume                               :   0.191978E+04  A^3

  Fractional coordinates:
                         L1                L2                L3
       atom_frac        -0.03128758        0.00045081       -0.01934239  Cs
       atom_frac        -0.02257396        0.00046234        0.47190517  Cs
       atom_frac         0.03208703        0.50044876        0.02652562  Cs
       atom_frac         0.02330670        0.50045361        0.53528190  Cs
       atom_frac         0.47748061        0.00045712       -0.02809107  Cs
       atom_frac         0.46868577        0.00045824        0.48068021  Cs
       atom_frac         0.52334621        0.50045736        0.03531122  Cs
       atom_frac         0.53207055        0.50045380        0.52654812  Cs
       atom_frac         0.25039141        0.25046558        0.25359056  Pb
       atom_frac         0.25039654        0.25044385        0.75359199  Pb
       atom_frac         0.25038114        0.75046365        0.25361241  Pb
       atom_frac         0.25039278        0.75043325        0.75360571  Pb
       atom_frac         0.75038687        0.25047492        0.25359658  Pb
       atom_frac         0.75040333        0.25044377        0.75359804  Pb
       atom_frac         0.75036703        0.75046915        0.25360906  Pb
       atom_frac         0.75038141        0.75042328        0.75360290  Pb
       atom_frac         0.30079257        0.29197736        0.00246444  I
       atom_frac         0.20000998        0.20891575        0.50471970  I
       atom_frac         0.30078323        0.70892439        0.00247564  I
       atom_frac         0.19997362        0.79196183        0.50472667  I
       atom_frac         0.69999513        0.20897296        0.00472794  I
       atom_frac         0.80080575        0.29192157        0.50247554  I
       atom_frac         0.69996243        0.79190807        0.00472882  I
       atom_frac         0.80079614        0.70897556        0.50247928  I
       atom_frac         0.29940477        0.00045839        0.21969749  I
       atom_frac         0.21653845        0.00043703        0.80260483  I
       atom_frac         0.20137823        0.50045705        0.28748853  I
       atom_frac         0.28423908        0.50043991        0.70457490  I
       atom_frac         0.71646277        0.00046309        0.30257151  I
       atom_frac         0.79935426        0.00043579        0.71972504  I
       atom_frac         0.78430915        0.50046605        0.20464627  I
       atom_frac         0.70140518        0.50043473        0.78748984  I
       atom_frac         0.00151030        0.20892107        0.20321964  I
       atom_frac        -0.00072869        0.29191773        0.80401483  I
       atom_frac         0.00150063        0.79197380        0.20320881  I
       atom_frac        -0.00073848        0.70896532        0.80401650  I
       atom_frac         0.49925932        0.29198096        0.30400375  I
       atom_frac         0.50152783        0.20896715        0.70319277  I
       atom_frac         0.49925032        0.70892915        0.30400442  I
       atom_frac         0.50151483        0.79190907        0.70317074  I


  Finished reading input file 'control.in'.


------------------------------------------------------------
          Reading geometry description geometry.in.
------------------------------------------------------------

  Consistency checks for stacksize environment parameter are next.

  | Maximum stacksize for task 0: unlimited
  | Maximum stacksize for task 1: unlimited
  | Maximum stacksize for task 2: unlimited
  | Maximum stacksize for task 3: unlimited
  | Maximum stacksize for task 4: unlimited
  | Maximum stacksize for task 5: unlimited
  | Maximum stacksize for task 6: unlimited
  | Maximum stacksize for task 7: unlimited
  | Maximum stacksize for task 8: unlimited
  | Maximum stacksize for task 9: unlimited
  | Maximum stacksize for task 10: unlimited
  | Maximum stacksize for task 11: unlimited
  | Maximum stacksize for task 12: unlimited
  | Maximum stacksize for task 13: unlimited
  | Maximum stacksize for task 14: unlimited
  | Maximum stacksize for task 15: unlimited
  | Maximum stacksize for task 16: unlimited
  | Maximum stacksize for task 17: unlimited
  | Maximum stacksize for task 18: unlimited
  | Maximum stacksize for task 19: unlimited
  | Maximum stacksize for task 20: unlimited
  | Maximum stacksize for task 21: unlimited
  | Maximum stacksize for task 22: unlimited
  | Maximum stacksize for task 23: unlimited
  | Maximum stacksize for task 24: unlimited
  | Maximum stacksize for task 25: unlimited
  | Maximum stacksize for task 26: unlimited
  | Maximum stacksize for task 27: unlimited
  | Maximum stacksize for task 28: unlimited
  | Maximum stacksize for task 29: unlimited
  | Maximum stacksize for task 30: unlimited
  | Maximum stacksize for task 31: unlimited
  | Maximum stacksize for task 32: unlimited
  | Maximum stacksize for task 33: unlimited
  | Maximum stacksize for task 34: unlimited
  | Maximum stacksize for task 35: unlimited
  | Maximum stacksize for task 36: unlimited
  | Maximum stacksize for task 37: unlimited
  | Maximum stacksize for task 38: unlimited
  | Maximum stacksize for task 39: unlimited
  | Maximum stacksize for task 40: unlimited
  | Maximum stacksize for task 41: unlimited
  | Maximum stacksize for task 42: unlimited
  | Maximum stacksize for task 43: unlimited
  | Maximum stacksize for task 44: unlimited
  | Maximum stacksize for task 45: unlimited
  | Maximum stacksize for task 46: unlimited
  | Maximum stacksize for task 47: unlimited
  | Maximum stacksize for task 48: unlimited
  | Maximum stacksize for task 49: unlimited
  | Maximum stacksize for task 50: unlimited
  | Maximum stacksize for task 51: unlimited
  | Maximum stacksize for task 52: unlimited
  | Maximum stacksize for task 53: unlimited
  | Maximum stacksize for task 54: unlimited
  | Maximum stacksize for task 55: unlimited
  | Maximum stacksize for task 56: unlimited
  | Maximum stacksize for task 57: unlimited
  | Maximum stacksize for task 58: unlimited
  | Maximum stacksize for task 59: unlimited
  | Maximum stacksize for task 60: unlimited
  | Maximum stacksize for task 61: unlimited
  | Maximum stacksize for task 62: unlimited
  | Maximum stacksize for task 63: unlimited
  | Maximum stacksize for task 64: unlimited
  | Maximum stacksize for task 65: unlimited
  | Maximum stacksize for task 66: unlimited
  | Maximum stacksize for task 67: unlimited
  | Maximum stacksize for task 68: unlimited
  | Maximum stacksize for task 69: unlimited
  | Maximum stacksize for task 70: unlimited
  | Maximum stacksize for task 71: unlimited
  | Maximum stacksize for task 72: unlimited
  | Maximum stacksize for task 73: unlimited
  | Maximum stacksize for task 74: unlimited
  | Maximum stacksize for task 75: unlimited
  | Maximum stacksize for task 76: unlimited
  | Maximum stacksize for task 77: unlimited
  | Maximum stacksize for task 78: unlimited
  | Maximum stacksize for task 79: unlimited
  | Maximum stacksize for task 80: unlimited
  | Maximum stacksize for task 81: unlimited
  | Maximum stacksize for task 82: unlimited
  | Maximum stacksize for task 83: unlimited
  | Maximum stacksize for task 84: unlimited
  | Maximum stacksize for task 85: unlimited
  | Maximum stacksize for task 86: unlimited
  | Maximum stacksize for task 87: unlimited
  | Maximum stacksize for task 88: unlimited
  | Maximum stacksize for task 89: unlimited
  | Maximum stacksize for task 90: unlimited
  | Maximum stacksize for task 91: unlimited
  | Maximum stacksize for task 92: unlimited
  | Maximum stacksize for task 93: unlimited
  | Maximum stacksize for task 94: unlimited
  | Maximum stacksize for task 95: unlimited
  | Maximum stacksize for task 96: unlimited
  | Maximum stacksize for task 97: unlimited
  | Maximum stacksize for task 98: unlimited
  | Maximum stacksize for task 99: unlimited
  | Maximum stacksize for task 100: unlimited
  | Maximum stacksize for task 101: unlimited
  | Maximum stacksize for task 102: unlimited
  | Maximum stacksize for task 103: unlimited
  | Maximum stacksize for task 104: unlimited
  | Maximum stacksize for task 105: unlimited
  | Maximum stacksize for task 106: unlimited
  | Maximum stacksize for task 107: unlimited
  | Maximum stacksize for task 108: unlimited
  | Maximum stacksize for task 109: unlimited
  | Maximum stacksize for task 110: unlimited
  | Maximum stacksize for task 111: unlimited
  | Maximum stacksize for task 112: unlimited
  | Maximum stacksize for task 113: unlimited
  | Maximum stacksize for task 114: unlimited
  | Maximum stacksize for task 115: unlimited
  | Maximum stacksize for task 116: unlimited
  | Maximum stacksize for task 117: unlimited
  | Maximum stacksize for task 118: unlimited
  | Maximum stacksize for task 119: unlimited
  | Maximum stacksize for task 120: unlimited
  | Maximum stacksize for task 121: unlimited
  | Maximum stacksize for task 122: unlimited
  | Maximum stacksize for task 123: unlimited
  | Maximum stacksize for task 124: unlimited
  | Maximum stacksize for task 125: unlimited
  | Maximum stacksize for task 126: unlimited
  | Maximum stacksize for task 127: unlimited
  | Maximum stacksize for task 128: unlimited
  | Maximum stacksize for task 129: unlimited
  | Maximum stacksize for task 130: unlimited
  | Maximum stacksize for task 131: unlimited
  | Maximum stacksize for task 132: unlimited
  | Maximum stacksize for task 133: unlimited
  | Maximum stacksize for task 134: unlimited
  | Maximum stacksize for task 135: unlimited
  | Maximum stacksize for task 136: unlimited
  | Maximum stacksize for task 137: unlimited
  | Maximum stacksize for task 138: unlimited
  | Maximum stacksize for task 139: unlimited
  | Maximum stacksize for task 140: unlimited
  | Maximum stacksize for task 141: unlimited
  | Maximum stacksize for task 142: unlimited
  | Maximum stacksize for task 143: unlimited
  | Maximum stacksize for task 144: unlimited
  | Maximum stacksize for task 145: unlimited
  | Maximum stacksize for task 146: unlimited
  | Maximum stacksize for task 147: unlimited
  | Maximum stacksize for task 148: unlimited
  | Maximum stacksize for task 149: unlimited
  | Maximum stacksize for task 150: unlimited
  | Maximum stacksize for task 151: unlimited
  | Maximum stacksize for task 152: unlimited
  | Maximum stacksize for task 153: unlimited
  | Maximum stacksize for task 154: unlimited
  | Maximum stacksize for task 155: unlimited
  | Maximum stacksize for task 156: unlimited
  | Maximum stacksize for task 157: unlimited
  | Maximum stacksize for task 158: unlimited
  | Maximum stacksize for task 159: unlimited
  | Maximum stacksize for task 160: unlimited
  | Maximum stacksize for task 161: unlimited
  | Maximum stacksize for task 162: unlimited
  | Maximum stacksize for task 163: unlimited
  | Maximum stacksize for task 164: unlimited
  | Maximum stacksize for task 165: unlimited
  | Maximum stacksize for task 166: unlimited
  | Maximum stacksize for task 167: unlimited
  | Maximum stacksize for task 168: unlimited
  | Maximum stacksize for task 169: unlimited
  | Maximum stacksize for task 170: unlimited
  | Maximum stacksize for task 171: unlimited
  | Maximum stacksize for task 172: unlimited
  | Maximum stacksize for task 173: unlimited
  | Maximum stacksize for task 174: unlimited
  | Maximum stacksize for task 175: unlimited
  | Maximum stacksize for task 176: unlimited
  | Maximum stacksize for task 177: unlimited
  | Maximum stacksize for task 178: unlimited
  | Maximum stacksize for task 179: unlimited
  | Maximum stacksize for task 180: unlimited
  | Maximum stacksize for task 181: unlimited
  | Maximum stacksize for task 182: unlimited
  | Maximum stacksize for task 183: unlimited
  | Maximum stacksize for task 184: unlimited
  | Maximum stacksize for task 185: unlimited
  | Maximum stacksize for task 186: unlimited
  | Maximum stacksize for task 187: unlimited
  | Maximum stacksize for task 188: unlimited
  | Maximum stacksize for task 189: unlimited
  | Maximum stacksize for task 190: unlimited
  | Maximum stacksize for task 191: unlimited
  | Maximum stacksize for task 192: unlimited
  | Maximum stacksize for task 193: unlimited
  | Maximum stacksize for task 194: unlimited
  | Maximum stacksize for task 195: unlimited
  | Maximum stacksize for task 196: unlimited
  | Maximum stacksize for task 197: unlimited
  | Maximum stacksize for task 198: unlimited
  | Maximum stacksize for task 199: unlimited
  | Maximum stacksize for task 200: unlimited
  | Maximum stacksize for task 201: unlimited
  | Maximum stacksize for task 202: unlimited
  | Maximum stacksize for task 203: unlimited
  | Maximum stacksize for task 204: unlimited
  | Maximum stacksize for task 205: unlimited
  | Maximum stacksize for task 206: unlimited
  | Maximum stacksize for task 207: unlimited
  | Maximum stacksize for task 208: unlimited
  | Maximum stacksize for task 209: unlimited
  | Maximum stacksize for task 210: unlimited
  | Maximum stacksize for task 211: unlimited
  | Maximum stacksize for task 212: unlimited
  | Maximum stacksize for task 213: unlimited
  | Maximum stacksize for task 214: unlimited
  | Maximum stacksize for task 215: unlimited
  | Maximum stacksize for task 216: unlimited
  | Maximum stacksize for task 217: unlimited
  | Maximum stacksize for task 218: unlimited
  | Maximum stacksize for task 219: unlimited
  | Maximum stacksize for task 220: unlimited
  | Maximum stacksize for task 221: unlimited
  | Maximum stacksize for task 222: unlimited
  | Maximum stacksize for task 223: unlimited
  | Maximum stacksize for task 224: unlimited
  | Maximum stacksize for task 225: unlimited
  | Maximum stacksize for task 226: unlimited
  | Maximum stacksize for task 227: unlimited
  | Maximum stacksize for task 228: unlimited
  | Maximum stacksize for task 229: unlimited
  | Maximum stacksize for task 230: unlimited
  | Maximum stacksize for task 231: unlimited
  | Maximum stacksize for task 232: unlimited
  | Maximum stacksize for task 233: unlimited
  | Maximum stacksize for task 234: unlimited
  | Maximum stacksize for task 235: unlimited
  | Maximum stacksize for task 236: unlimited
  | Maximum stacksize for task 237: unlimited
  | Maximum stacksize for task 238: unlimited
  | Maximum stacksize for task 239: unlimited
  | Maximum stacksize for task 240: unlimited
  | Maximum stacksize for task 241: unlimited
  | Maximum stacksize for task 242: unlimited
  | Maximum stacksize for task 243: unlimited
  | Maximum stacksize for task 244: unlimited
  | Maximum stacksize for task 245: unlimited
  | Maximum stacksize for task 246: unlimited
  | Maximum stacksize for task 247: unlimited
  | Maximum stacksize for task 248: unlimited
  | Maximum stacksize for task 249: unlimited
  | Maximum stacksize for task 250: unlimited
  | Maximum stacksize for task 251: unlimited
  | Maximum stacksize for task 252: unlimited
  | Maximum stacksize for task 253: unlimited
  | Maximum stacksize for task 254: unlimited
  | Maximum stacksize for task 255: unlimited
  | Maximum stacksize for task 256: unlimited
  | Maximum stacksize for task 257: unlimited
  | Maximum stacksize for task 258: unlimited
  | Maximum stacksize for task 259: unlimited
  | Maximum stacksize for task 260: unlimited
  | Maximum stacksize for task 261: unlimited
  | Maximum stacksize for task 262: unlimited
  | Maximum stacksize for task 263: unlimited
  | Maximum stacksize for task 264: unlimited
  | Maximum stacksize for task 265: unlimited
  | Maximum stacksize for task 266: unlimited
  | Maximum stacksize for task 267: unlimited
  | Maximum stacksize for task 268: unlimited
  | Maximum stacksize for task 269: unlimited
  | Maximum stacksize for task 270: unlimited
  | Maximum stacksize for task 271: unlimited
  | Maximum stacksize for task 272: unlimited
  | Maximum stacksize for task 273: unlimited
  | Maximum stacksize for task 274: unlimited
  | Maximum stacksize for task 275: unlimited
  | Maximum stacksize for task 276: unlimited
  | Maximum stacksize for task 277: unlimited
  | Maximum stacksize for task 278: unlimited
  | Maximum stacksize for task 279: unlimited
  | Maximum stacksize for task 280: unlimited
  | Maximum stacksize for task 281: unlimited
  | Maximum stacksize for task 282: unlimited
  | Maximum stacksize for task 283: unlimited
  | Maximum stacksize for task 284: unlimited
  | Maximum stacksize for task 285: unlimited
  | Maximum stacksize for task 286: unlimited
  | Maximum stacksize for task 287: unlimited
  | Maximum stacksize for task 288: unlimited
  | Maximum stacksize for task 289: unlimited
  | Maximum stacksize for task 290: unlimited
  | Maximum stacksize for task 291: unlimited
  | Maximum stacksize for task 292: unlimited
  | Maximum stacksize for task 293: unlimited
  | Maximum stacksize for task 294: unlimited
  | Maximum stacksize for task 295: unlimited
  | Maximum stacksize for task 296: unlimited
  | Maximum stacksize for task 297: unlimited
  | Maximum stacksize for task 298: unlimited
  | Maximum stacksize for task 299: unlimited
  | Maximum stacksize for task 300: unlimited
  | Maximum stacksize for task 301: unlimited
  | Maximum stacksize for task 302: unlimited
  | Maximum stacksize for task 303: unlimited
  | Maximum stacksize for task 304: unlimited
  | Maximum stacksize for task 305: unlimited
  | Maximum stacksize for task 306: unlimited
  | Maximum stacksize for task 307: unlimited
  | Maximum stacksize for task 308: unlimited
  | Maximum stacksize for task 309: unlimited
  | Maximum stacksize for task 310: unlimited
  | Maximum stacksize for task 311: unlimited
  | Maximum stacksize for task 312: unlimited
  | Maximum stacksize for task 313: unlimited
  | Maximum stacksize for task 314: unlimited
  | Maximum stacksize for task 315: unlimited
  | Maximum stacksize for task 316: unlimited
  | Maximum stacksize for task 317: unlimited
  | Maximum stacksize for task 318: unlimited
  | Maximum stacksize for task 319: unlimited
  | Maximum stacksize for task 320: unlimited
  | Maximum stacksize for task 321: unlimited
  | Maximum stacksize for task 322: unlimited
  | Maximum stacksize for task 323: unlimited
  | Maximum stacksize for task 324: unlimited
  | Maximum stacksize for task 325: unlimited
  | Maximum stacksize for task 326: unlimited
  | Maximum stacksize for task 327: unlimited
  | Maximum stacksize for task 328: unlimited
  | Maximum stacksize for task 329: unlimited
  | Maximum stacksize for task 330: unlimited
  | Maximum stacksize for task 331: unlimited
  | Maximum stacksize for task 332: unlimited
  | Maximum stacksize for task 333: unlimited
  | Maximum stacksize for task 334: unlimited
  | Maximum stacksize for task 335: unlimited
  | Maximum stacksize for task 336: unlimited
  | Maximum stacksize for task 337: unlimited
  | Maximum stacksize for task 338: unlimited
  | Maximum stacksize for task 339: unlimited
  | Maximum stacksize for task 340: unlimited
  | Maximum stacksize for task 341: unlimited
  | Maximum stacksize for task 342: unlimited
  | Maximum stacksize for task 343: unlimited
  | Maximum stacksize for task 344: unlimited
  | Maximum stacksize for task 345: unlimited
  | Maximum stacksize for task 346: unlimited
  | Maximum stacksize for task 347: unlimited
  | Maximum stacksize for task 348: unlimited
  | Maximum stacksize for task 349: unlimited
  | Maximum stacksize for task 350: unlimited
  | Maximum stacksize for task 351: unlimited
  | Maximum stacksize for task 352: unlimited
  | Maximum stacksize for task 353: unlimited
  | Maximum stacksize for task 354: unlimited
  | Maximum stacksize for task 355: unlimited
  | Maximum stacksize for task 356: unlimited
  | Maximum stacksize for task 357: unlimited
  | Maximum stacksize for task 358: unlimited
  | Maximum stacksize for task 359: unlimited
  | Maximum stacksize for task 360: unlimited
  | Maximum stacksize for task 361: unlimited
  | Maximum stacksize for task 362: unlimited
  | Maximum stacksize for task 363: unlimited
  | Maximum stacksize for task 364: unlimited
  | Maximum stacksize for task 365: unlimited
  | Maximum stacksize for task 366: unlimited
  | Maximum stacksize for task 367: unlimited
  | Maximum stacksize for task 368: unlimited
  | Maximum stacksize for task 369: unlimited
  | Maximum stacksize for task 370: unlimited
  | Maximum stacksize for task 371: unlimited
  | Maximum stacksize for task 372: unlimited
  | Maximum stacksize for task 373: unlimited
  | Maximum stacksize for task 374: unlimited
  | Maximum stacksize for task 375: unlimited
  | Maximum stacksize for task 376: unlimited
  | Maximum stacksize for task 377: unlimited
  | Maximum stacksize for task 378: unlimited
  | Maximum stacksize for task 379: unlimited
  | Maximum stacksize for task 380: unlimited
  | Maximum stacksize for task 381: unlimited
  | Maximum stacksize for task 382: unlimited
  | Maximum stacksize for task 383: unlimited
  | Maximum stacksize for task 384: unlimited
  | Maximum stacksize for task 385: unlimited
  | Maximum stacksize for task 386: unlimited
  | Maximum stacksize for task 387: unlimited
  | Maximum stacksize for task 388: unlimited
  | Maximum stacksize for task 389: unlimited
  | Maximum stacksize for task 390: unlimited
  | Maximum stacksize for task 391: unlimited
  | Maximum stacksize for task 392: unlimited
  | Maximum stacksize for task 393: unlimited
  | Maximum stacksize for task 394: unlimited
  | Maximum stacksize for task 395: unlimited
  | Maximum stacksize for task 396: unlimited
  | Maximum stacksize for task 397: unlimited
  | Maximum stacksize for task 398: unlimited
  | Maximum stacksize for task 399: unlimited
  | Maximum stacksize for task 400: unlimited
  | Maximum stacksize for task 401: unlimited
  | Maximum stacksize for task 402: unlimited
  | Maximum stacksize for task 403: unlimited
  | Maximum stacksize for task 404: unlimited
  | Maximum stacksize for task 405: unlimited
  | Maximum stacksize for task 406: unlimited
  | Maximum stacksize for task 407: unlimited
  | Maximum stacksize for task 408: unlimited
  | Maximum stacksize for task 409: unlimited
  | Maximum stacksize for task 410: unlimited
  | Maximum stacksize for task 411: unlimited
  | Maximum stacksize for task 412: unlimited
  | Maximum stacksize for task 413: unlimited
  | Maximum stacksize for task 414: unlimited
  | Maximum stacksize for task 415: unlimited
  | Maximum stacksize for task 416: unlimited
  | Maximum stacksize for task 417: unlimited
  | Maximum stacksize for task 418: unlimited
  | Maximum stacksize for task 419: unlimited
  | Maximum stacksize for task 420: unlimited
  | Maximum stacksize for task 421: unlimited
  | Maximum stacksize for task 422: unlimited
  | Maximum stacksize for task 423: unlimited
  | Maximum stacksize for task 424: unlimited
  | Maximum stacksize for task 425: unlimited
  | Maximum stacksize for task 426: unlimited
  | Maximum stacksize for task 427: unlimited
  | Maximum stacksize for task 428: unlimited
  | Maximum stacksize for task 429: unlimited
  | Maximum stacksize for task 430: unlimited
  | Maximum stacksize for task 431: unlimited
  | Maximum stacksize for task 432: unlimited
  | Maximum stacksize for task 433: unlimited
  | Maximum stacksize for task 434: unlimited
  | Maximum stacksize for task 435: unlimited
  | Maximum stacksize for task 436: unlimited
  | Maximum stacksize for task 437: unlimited
  | Maximum stacksize for task 438: unlimited
  | Maximum stacksize for task 439: unlimited
  | Maximum stacksize for task 440: unlimited
  | Maximum stacksize for task 441: unlimited
  | Maximum stacksize for task 442: unlimited
  | Maximum stacksize for task 443: unlimited
  | Maximum stacksize for task 444: unlimited
  | Maximum stacksize for task 445: unlimited
  | Maximum stacksize for task 446: unlimited
[...]
   ----------------------------------------------------------------
   Total forces(  28)            :  0.155184E-03 -0.822497E-05  0.619053E-04
  atom #   29
   Hellmann-Feynman              : -0.245758E+01  0.165574E-02  0.509739E+01
   Ionic forces                  :  0.000000E+00  0.000000E+00  0.000000E+00
   Multipole                     : -0.316261E-02  0.699696E-04  0.350433E-02
   Hartree pot. SCF incomplete   :  0.372825E-04  0.727310E-06  0.356850E-04
   Pulay + GGA                   :  0.246709E+01 -0.165114E-02 -0.511621E+01
   Van der Waals                 : -0.637015E-02 -0.362833E-04  0.152665E-01
   ----------------------------------------------------------------
   Total forces(  29)            :  0.756376E-05  0.390053E-04 -0.903755E-05
  atom #   30
   Hellmann-Feynman              :  0.509645E+01 -0.201464E-03 -0.245424E+01
   Ionic forces                  :  0.000000E+00  0.000000E+00  0.000000E+00
   Multipole                     :  0.351340E-02 -0.319694E-04 -0.318049E-02
   Hartree pot. SCF incomplete   :  0.343248E-04  0.965409E-07  0.392723E-04
   Pulay + GGA                   : -0.511524E+01  0.228169E-03  0.246378E+01
   Van der Waals                 :  0.152801E-01  0.111950E-04 -0.638753E-02
   ----------------------------------------------------------------
   Total forces(  30)            :  0.389728E-04  0.602736E-05  0.141085E-04
  atom #   31
   Hellmann-Feynman              :  0.245898E+01  0.142976E-02 -0.509581E+01
   Ionic forces                  :  0.000000E+00  0.000000E+00  0.000000E+00
   Multipole                     :  0.317988E-02  0.705276E-04 -0.350618E-02
   Hartree pot. SCF incomplete   : -0.342518E-04  0.136749E-05 -0.418490E-04
   Pulay + GGA                   : -0.246846E+01 -0.162319E-02  0.511451E+01
   Van der Waals                 :  0.635646E-02 -0.419703E-04 -0.152870E-01
   ----------------------------------------------------------------
   Total forces(  31)            :  0.207075E-04 -0.163510E-03 -0.134317E-03
  atom #   32
   Hellmann-Feynman              : -0.509963E+01 -0.412462E-03  0.245569E+01
   Ionic forces                  :  0.000000E+00  0.000000E+00  0.000000E+00
   Multipole                     : -0.352800E-02 -0.306144E-04  0.317870E-02
   Hartree pot. SCF incomplete   : -0.412568E-04  0.162372E-06 -0.320537E-04
   Pulay + GGA                   :  0.511843E+01  0.484688E-03 -0.246514E+01
   Van der Waals                 : -0.152309E-01  0.130364E-04  0.636177E-02
   ----------------------------------------------------------------
   Total forces(  32)            : -0.793078E-05  0.548104E-04  0.538488E-04
  atom #   33
   Hellmann-Feynman              : -0.257501E+00 -0.360941E+01 -0.416793E+01
   Ionic forces                  :  0.000000E+00  0.000000E+00  0.000000E+00
   Multipole                     :  0.411682E-03 -0.620190E-02 -0.731202E-02
   Hartree pot. SCF incomplete   : -0.253206E-04  0.682452E-05 -0.486845E-05
   Pulay + GGA                   :  0.254852E+00  0.361304E+01  0.417389E+01
   Van der Waals                 :  0.240854E-02  0.262854E-02  0.122939E-02
   ----------------------------------------------------------------
   Total forces(  33)            :  0.146268E-03  0.711541E-04 -0.127417E-03
  atom #   34
   Hellmann-Feynman              :  0.257245E+00  0.360123E+01  0.417455E+01
   Ionic forces                  :  0.000000E+00  0.000000E+00  0.000000E+00
   Multipole                     : -0.403063E-03  0.618662E-02  0.734536E-02
   Hartree pot. SCF incomplete   :  0.241741E-04  0.769725E-05  0.618095E-05
   Pulay + GGA                   : -0.254413E+00 -0.360465E+01 -0.418061E+01
   Van der Waals                 : -0.240623E-02 -0.266086E-02 -0.123819E-02
   ----------------------------------------------------------------
   Total forces(  34)            :  0.462213E-04  0.118010E-03  0.525641E-04
  atom #   35
   Hellmann-Feynman              : -0.257759E+00  0.360484E+01 -0.417139E+01
   Ionic forces                  :  0.000000E+00  0.000000E+00  0.000000E+00
   Multipole                     :  0.395639E-03  0.617504E-02 -0.730580E-02
   Hartree pot. SCF incomplete   : -0.274624E-04 -0.845724E-05 -0.501865E-05
   Pulay + GGA                   :  0.255089E+00 -0.360843E+01  0.417743E+01
   Van der Waals                 :  0.241045E-02 -0.260864E-02  0.122320E-02
   ----------------------------------------------------------------
   Total forces(  35)            :  0.107879E-03 -0.279255E-04 -0.464242E-04
  atom #   36
   Hellmann-Feynman              :  0.257645E+00 -0.360084E+01  0.417400E+01
   Ionic forces                  :  0.000000E+00  0.000000E+00  0.000000E+00
   Multipole                     : -0.406892E-03 -0.616805E-02  0.733517E-02
   Hartree pot. SCF incomplete   :  0.228813E-04 -0.771299E-05  0.734862E-05
   Pulay + GGA                   : -0.254895E+00  0.360432E+01 -0.418010E+01
   Van der Waals                 : -0.240700E-02  0.264865E-02 -0.123172E-02
   ----------------------------------------------------------------
   Total forces(  36)            : -0.409726E-04 -0.409221E-04  0.549168E-05
  atom #   37
   Hellmann-Feynman              :  0.258486E+00  0.360544E+01  0.417252E+01
   Ionic forces                  :  0.000000E+00  0.000000E+00  0.000000E+00
   Multipole                     : -0.425020E-03  0.618815E-02  0.731486E-02
   Hartree pot. SCF incomplete   :  0.246874E-04  0.962906E-05  0.483155E-05
   Pulay + GGA                   : -0.255650E+00 -0.360900E+01 -0.417863E+01
   Van der Waals                 : -0.238233E-02 -0.262100E-02 -0.124649E-02
   ----------------------------------------------------------------
   Total forces(  37)            :  0.532270E-04  0.132621E-04 -0.339213E-04
  atom #   38
   Hellmann-Feynman              : -0.257542E+00 -0.360308E+01 -0.417275E+01
   Ionic forces                  :  0.000000E+00  0.000000E+00  0.000000E+00
   Multipole                     :  0.433752E-03 -0.617451E-02 -0.733057E-02
   Hartree pot. SCF incomplete   : -0.234488E-04  0.846944E-05 -0.317219E-05
   Pulay + GGA                   :  0.254610E+00  0.360656E+01  0.417884E+01
   Van der Waals                 :  0.237981E-02  0.265259E-02  0.123102E-02
   ----------------------------------------------------------------
   Total forces(  38)            : -0.142040E-03 -0.344176E-04 -0.486404E-05
  atom #   39
   Hellmann-Feynman              :  0.258346E+00 -0.360797E+01  0.417070E+01
   Ionic forces                  :  0.000000E+00  0.000000E+00  0.000000E+00
   Multipole                     : -0.442114E-03 -0.619602E-02  0.731441E-02
   Hartree pot. SCF incomplete   :  0.261424E-04 -0.114461E-04  0.493012E-05
   Pulay + GGA                   : -0.255543E+00  0.361157E+01 -0.417671E+01
   Van der Waals                 : -0.238071E-02  0.262679E-02 -0.122848E-02
   ----------------------------------------------------------------
   Total forces(  39)            :  0.590053E-05  0.164604E-04  0.845110E-04
  atom #   40
   Hellmann-Feynman              : -0.257507E+00  0.360158E+01 -0.417584E+01
   Ionic forces                  :  0.000000E+00  0.000000E+00  0.000000E+00
   Multipole                     :  0.432576E-03  0.618083E-02 -0.734463E-02
   Hartree pot. SCF incomplete   : -0.227897E-04 -0.833143E-05 -0.257654E-05
   Pulay + GGA                   :  0.254651E+00 -0.360502E+01  0.418196E+01
   Van der Waals                 :  0.238441E-02 -0.266769E-02  0.122539E-02
   ----------------------------------------------------------------
   Total forces(  40)            : -0.613264E-04  0.630937E-04 -0.277927E-05

  Timings for VdW correction (Tkatchenko-Scheffler 2009 or later):
  | CPU time:        1.471 s, Wall clock time:        1.426 s.
  Removing unitary transformations (pure translations, rotations) from forces on atoms.
  Atomic forces before filtering:
  | Net force on center of mass :  -0.139170E-04  0.647740E-04  0.110746E-03 eV/A
  Atomic forces after filtering:
  | Net force on center of mass :  -0.239559E-18 -0.402895E-18 -0.144280E-18 eV/A

  Energy and forces in a compact form:
  | Total energy uncorrected      :         -0.111624905300069E+08 eV
  | Total energy corrected        :         -0.111624905300069E+08 eV  <-- do not rely on this value for anything but (periodic) metals
  | Electronic free energy        :         -0.111624905300069E+08 eV
  Total atomic forces (unitary forces cleaned) [eV/Ang]:
  |    1         -0.375850440428248E-04         -0.451971993034893E-04          0.241831515563494E-06
  |    2          0.244877387307362E-04         -0.114480802990904E-03          0.194373195858831E-04
  |    3         -0.677775490793774E-05          0.962173829651526E-05         -0.700800014932143E-05
  |    4          0.152359799262722E-04          0.345513643719493E-04          0.214717329922499E-04
  |    5         -0.103037555827080E-03         -0.380693866688499E-06         -0.712491351672561E-05
  |    6         -0.903992128790079E-04         -0.543123537679999E-04         -0.890843211202676E-04
  |    7         -0.559028279119157E-04         -0.512745487658812E-04         -0.764080404112803E-04
  |    8          0.115537113291415E-03         -0.377682548032856E-04          0.257926477845916E-04
  |    9         -0.239511629234858E-03         -0.409269191168171E-03         -0.257212282862000E-03
  |   10          0.621364880110954E-06          0.659361338359100E-03          0.350798637570071E-03
  |   11         -0.218513485640438E-03         -0.309661791391917E-04         -0.597263844717006E-03
  |   12         -0.224683047884313E-04          0.108569454642716E-02          0.419402872969717E-03
  |   13         -0.280790478199998E-06         -0.123600788238547E-02         -0.301311150717691E-03
  |   14         -0.132071795239818E-03         -0.167581883584558E-03          0.288925376650729E-03
  |   15          0.284358771753965E-03         -0.787744086824544E-03         -0.427161137611131E-03
  |   16          0.402665628337473E-03          0.548049261581291E-03          0.334355004041880E-03
  |   17          0.364571447105922E-04         -0.621500082373159E-04          0.100100143770454E-03
  |   18         -0.951342182629686E-04          0.174954887804283E-03          0.144046514284269E-04
  |   19          0.303169177314283E-04          0.116012137247547E-03          0.209299720149897E-04
  |   20         -0.373540108950689E-04          0.571577910440579E-04          0.138658428515381E-03
  |   21         -0.973542934934857E-04         -0.570441036039576E-05          0.170941552374967E-04
  |   22          0.433314716927844E-04          0.967197931032975E-04          0.220106872867163E-04
  |   23         -0.277681912079232E-04          0.282591158819905E-04          0.472917748710106E-04
  |   24          0.341834410140857E-04         -0.322924512418558E-04         -0.311459982572962E-04
  |   25         -0.861349591277531E-04         -0.333942430382729E-04          0.273970437439522E-04
  |   26         -0.801372387088880E-04          0.189304985394692E-03          0.796183197137006E-05
  |   27          0.905842607507613E-05         -0.169351658911695E-04          0.597690124710595E-04
  |   28          0.155532397228790E-03         -0.984432124493369E-05          0.591366020572604E-04
  |   29          0.791168838493427E-05          0.373859163593255E-04         -0.118061959786689E-04
  |   30          0.393207067743694E-04          0.440801345032462E-05          0.113398597515448E-04
  |   31          0.210554376667185E-04         -0.165128860041851E-03         -0.137086009855552E-03
  |   32         -0.758285310452917E-05          0.531910995964944E-04          0.510801923074233E-04
  |   33          0.146615687835407E-03          0.695347058521949E-04         -0.130185313743525E-03
  |   34          0.465692152162396E-04          0.116390992529681E-03          0.497954207437331E-04
  |   35          0.108226776188660E-03         -0.295448741232658E-04         -0.491928477444387E-04
  |   36         -0.406246497215400E-04         -0.425414560959152E-04          0.272302596432901E-05
  |   37          0.535749339548457E-04          0.116427237991504E-04         -0.366899350396273E-04
  |   38         -0.141692039474561E-03         -0.360369910989733E-04         -0.763268561780741E-05
  |   39          0.624845156141711E-05          0.148410582986955E-04          0.817423748629392E-04
  |   40         -0.609784380080914E-04          0.614743885763865E-04         -0.554792276643409E-05

  ------------------------------------ 
  Start decomposition of the XC Energy 
  ------------------------------------ 
  X and C from original XC functional choice 
  Hartree-Fock Energy :          0.000000000 Ha              0.000000000 eV
  X Energy            :      -8936.503884213 Ha        -243174.643279065 eV
  C Energy            :       -132.918738783 Ha          -3616.902908269 eV
  Total XC Energy     :      -9069.422622996 Ha        -246791.546187335 eV
  ------------------------------------ 
  LDA X and C from self-consistent density 
  X Energy LDA        :      -8547.552887440 Ha        -232590.748154227 eV
  C Energy LDA        :       -233.870333184 Ha          -6363.935559404 eV
  ------------------------------------ 
  End decomposition of the XC Energy 
  ------------------------------------ 

------------------------------------------------------------

------------------------------------------------------------------------------
  Final output of selected total energy values:

  The following output summarizes some interesting total energy values
  at the end of a run (AFTER all relaxation, molecular dynamics, etc.).

  | Total energy of the DFT / Hartree-Fock s.c.f. calculation      :      -11162490.530006899 eV
  | Final zero-broadening corrected energy (caution - metals only) :      -11162490.530006899 eV
  | For reference only, the value of 1 Hartree used in FHI-aims is :             27.211384500 eV
  | For reference only, the overall average (free atom contribution
  | + realspace contribution) of the electrostatic potential after
  | s.c.f. convergence is                                          :            -11.847259164 eV

  Before relying on these values, please be sure to understand exactly which
  total energy value is referred to by a given number. Different objects may
  all carry the same name 'total energy'. Definitions:

  Total energy of the DFT / Hartree-Fock s.c.f. calculation:
  | Note that this energy does not include ANY quantities calculated after the
  | s.c.f. cycle, in particular not ANY RPA, MP2, etc. many-body perturbation terms.

  Final zero-broadening corrected energy:
  | For metallic systems only, a broadening of the occupation numbers at the Fermi
  | level can be extrapolated back to zero broadening by an electron-gas inspired
  | formula. For all systems that are not real metals, this value can be
  | meaningless and should be avoided.

------------------------------------------------------------------------------
  Methods described in the following list of references were used in this FHI-aims run.
  If you publish the results, please make sure to cite these reference if they apply.
  FHI-aims is an academic code, and for our developers (often, Ph.D. students
  and postdocs), scientific credit in the community is essential.
  Thank you for helping us!

  For any use of FHI-aims, please cite:

    Volker Blum, Ralf Gehrke, Felix Hanke, Paula Havu, Ville Havu,
    Xinguo Ren, Karsten Reuter, and Matthias Scheffler
    'Ab initio molecular simulations with numeric atom-centered orbitals'
    Computer Physics Communications 180, 2175-2196 (2009)
    http://dx.doi.org/10.1016/j.cpc.2009.06.022


  The provided symmetry information was generated with SPGlib:

    Atsushi Togo, Yusuke Seto, Dimitar Pashov
    SPGlib 1.7.3 obtained from http://spglib.sourceforge.net
    Copyright (C) 2008 Atsushi Togo


  The ELSI infrastructure was used in your run to solve the Kohn-Sham electronic structure.
  Please check out http://elsi-interchange.org to learn more.
  If scalability is important for your project, please acknowledge ELSI by citing:

    V. W-z. Yu, F. Corsetti, A. Garcia, W. P. Huhn, M. Jacquelin, W. Jia,
    B. Lange, L. Lin, J. Lu, W. Mi, A. Seifitokaldani, A. Vazquez-Mayagoitia,
    C. Yang, H. Yang, and V. Blum
    'ELSI: A unified software interface for Kohn-Sham electronic structure solvers'
    Computer Physics Communications 222, 267-285 (2018).
    http://dx.doi.org/10.1016/j.cpc.2017.09.007


  For the real-space grid partitioning and parallelization used in this calculation, please cite:

    Ville Havu, Volker Blum, Paula Havu, and Matthias Scheffler,
    'Efficient O(N) integration for all-electron electronic structure calculation'
    'using numerically tabulated basis functions'
    Journal of Computational Physics 228, 8367-8379 (2009).
    http://dx.doi.org/10.1016/j.jcp.2009.08.008

  Of course, there are many other important community references, e.g., those cited in the
  above references. Our list is limited to references that describe implementations in the
  FHI-aims code. The reason is purely practical (length of this list) - please credit others as well.

------------------------------------------------------------
          Leaving FHI-aims.
          Date     :  20231020, Time     :  160119.192

          Computational steps:
          | Number of self-consistency cycles          :           16
          | Number of SCF (re)initializations          :            1

          Detailed time accounting                     :  max(cpu_time)    wall_clock(cpu1)
          | Total time                                 :       51.713 s          51.938 s
          | Preparation time                           :        1.068 s           1.066 s
          | Boundary condition initalization           :        0.408 s           0.407 s
          | Grid partitioning                          :        0.858 s           0.851 s
          | Preloading free-atom quantities on grid    :        0.169 s           0.168 s
          | Free-atom superposition energy             :        0.025 s           0.025 s
          | Total time for integrations                :        6.605 s           6.607 s
          | Total time for solution of K.-S. equations :        4.715 s           4.710 s
          | Total time for density & force components  :       18.843 s          18.836 s
          | Total time for mixing & preconditioning    :        3.821 s           3.146 s
          | Total time for Hartree multipole update    :        0.158 s           0.160 s
          | Total time for Hartree multipole sum       :       10.314 s          10.313 s
          | Total time for total energy evaluation     :        0.020 s           0.025 s
          | Total time NSC force correction            :        2.265 s           2.265 s
          | Total time for scaled ZORA corrections     :        0.000 s           0.000 s
          | Total time for vdW correction              :        1.471 s           1.426 s

          Partial memory accounting:
          | Residual value for overall tracked memory usage across tasks:     0.000000 MB (should be 0.000000 MB)
          | Peak values for overall tracked memory usage:
          |   Minimum:       63.006 MB (on task  63 after allocating temp_ham_ovlp)
          |   Maximum:       63.176 MB (on task   0 after allocating temp_ham_ovlp)
          |   Average:       63.144 MB
          | Largest tracked array allocation:
          |   Minimum:       18.713 MB (overlap_matrix on task   0)
          |   Maximum:       18.713 MB (overlap_matrix on task   0)
          |   Average:       18.713 MB
          Note:  These values currently only include a subset of arrays which are explicitly tracked.
          The "true" memory usage will be greater.

          Have a nice day.
------------------------------------------------------------
