********************************************************************************
*                       GENERAL UTILITY LATTICE PROGRAM                        *
*                                 Julian Gale                                  *
*                       Curtin Institute for Computation                       *
*                    School of Molecular and Life Sciences                     *
*                    Curtin University, Western Australia                      *
********************************************************************************
* Version = 6.1.2 * Last modified =   3rd November 2022                        *
********************************************************************************
*  optimise     - perform optimisation run                                     *
*  conp         - constant pressure calculation                                *
*  property     - calculate properties for final geometry                      *
*  phonon       - calculate phonons for final geometry                         *
*  nosymmetry   - turn off symmetry after initial structure generation         *
*  full         - generate full unit cell when symmetry is removed             *
*  distance     - calculate distances                                          *
*  compare      - compare initial and final structures                         *
********************************************************************************

  Job Started  at 16:53.50 21st November   2023                               

  Number of CPUs =     4

  Host name      = nid001027                               


  Total number of configurations input =      1

********************************************************************************
*  Input for Configuration =   1                                               *
********************************************************************************

  Formula = Tc12Mn12Li12O48                                             

  Number of irreducible atoms/shells =     144


  Total number atoms/shells =     144

  Dimensionality = 3               :  Bulk   



  Cartesian lattice vectors (Angstroms) :

        8.872874    0.000000    0.000000
        0.000000    9.432501    0.000000
        0.000000    0.000000    8.565761

  Cell parameters (Angstroms/Degrees):

  a =       8.8729    alpha =  90.0000
  b =       9.4325    beta  =  90.0000
  c =       8.5658    gamma =  90.0000

  Initial cell volume =         716.897611 Angs**3

  Temperature of configuration =   0.00     K 

  Pressure of configuration =         0.000 GPa 

  Fractional coordinates of asymmetric unit :

--------------------------------------------------------------------------------
   No.  Atomic       x           y          z         Charge      Occupancy
        Label      (Frac)      (Frac)     (Frac)        (e)         (Frac)  
--------------------------------------------------------------------------------
      1 Tc    c    0.344602 *  0.695580 *  0.258232 *   1.97100    1.000000    
      2 Tc    c    0.367900 *  0.205936 *  0.928383 *   1.97100    1.000000    
      3 Tc    c    0.850022 *  0.981232 *  0.597085 *   1.97100    1.000000    
      4 Tc    c    0.840520 *  0.978730 *  0.264790 *   1.97100    1.000000    
      5 Tc    c    0.358972 *  0.712510 *  0.935888 *   1.97100    1.000000    
      6 Tc    c    0.643893 *  0.710503 *  0.099436 *   1.97100    1.000000    
      7 Tc    c    0.855535 *  0.472576 *  0.264028 *   1.97100    1.000000    
      8 Tc    c    0.364042 *  0.195292 *  0.259834 *   1.97100    1.000000    
      9 Tc    c    0.153339 *  0.969285 *  0.761130 *   1.97100    1.000000    
     10 Tc    c    0.858087 *  0.474233 *  0.593595 *   1.97100    1.000000    
     11 Tc    c    0.363734 *  0.198174 *  0.598072 *   1.97100    1.000000    
     12 Tc    c    0.654350 *  0.209495 *  0.096458 *   1.97100    1.000000    
     13 Mn    c    0.145469 *  0.961645 *  0.427078 *   4.00000    1.000000    
     14 Mn    c    0.149607 *  0.469236 *  0.758611 *   4.00000    1.000000    
     15 Mn    c    0.153403 *  0.463980 *  0.094525 *   4.00000    1.000000    
     16 Mn    c    0.643620 *  0.708087 *  0.430367 *   4.00000    1.000000    
     17 Mn    c    0.649138 *  0.716956 *  0.762820 *   4.00000    1.000000    
     18 Mn    c    0.657753 *  0.210476 *  0.429951 *   4.00000    1.000000    
     19 Mn    c    0.863917 *  0.969240 *  0.927176 *   4.00000    1.000000    
     20 Mn    c    0.151358 *  0.466890 *  0.430074 *   4.00000    1.000000    
     21 Mn    c    0.144446 *  0.963965 *  0.096892 *   4.00000    1.000000    
     22 Mn    c    0.658501 *  0.215948 *  0.763007 *   4.00000    1.000000    
     23 Mn    c    0.359802 *  0.705557 *  0.594812 *   4.00000    1.000000    
     24 Mn    c    0.867451 *  0.473876 *  0.926700 *   4.00000    1.000000    
     25 Li    c    0.018597 *  0.738709 *  0.929593 *   1.00000    1.000000    
     26 Li    c    0.506113 *  0.934781 *  0.264206 *   1.00000    1.000000    
     27 Li    c    0.509906 *  0.438002 *  0.593420 *   1.00000    1.000000    
     28 Li    c    0.016833 *  0.230281 *  0.576520 *   1.00000    1.000000    
     29 Li    c    0.515525 *  0.436543 *  0.257658 *   1.00000    1.000000    
     30 Li    c    0.509661 *  0.943518 *  0.595608 *   1.00000    1.000000    
     31 Li    c    0.003719 *  0.739846 *  0.588295 *   1.00000    1.000000    
     32 Li    c    0.517551 *  0.950462 *  0.941713 *   1.00000    1.000000    
     33 Li    c    0.016705 *  0.232162 *  0.268719 *   1.00000    1.000000    
     34 Li    c    0.008638 *  0.230226 *  0.923543 *   1.00000    1.000000    
     35 Li    c    0.002427 *  0.740756 *  0.270172 *   1.00000    1.000000    
     36 Li    c    0.520305 *  0.448406 *  0.918299 *   1.00000    1.000000    
     37 O     c    0.062314 *  0.064762 *  0.261672 *   0.51300    1.000000    
     38 O     c    0.459337 *  0.309175 *  0.101859 *   0.51300    1.000000    
     39 O     c    0.588185 *  0.094276 *  0.269662 *   0.51300    1.000000    
     40 O     c    0.965979 *  0.367318 *  0.088940 *   0.51300    1.000000    
     41 O     c    0.304920 *  0.080178 *  0.090639 *   0.51300    1.000000    
     42 O     c    0.214286 *  0.350247 *  0.263922 *   0.51300    1.000000    
     43 O     c    0.807097 *  0.081958 *  0.083411 *   0.51300    1.000000    
     44 O     c    0.717137 *  0.330614 *  0.274270 *   0.51300    1.000000    
     45 O     c    0.085323 *  0.577449 *  0.260788 *   0.51300    1.000000    
     46 O     c    0.453645 *  0.812919 *  0.102539 *   0.51300    1.000000    
     47 O     c    0.560728 *  0.604481 *  0.268988 *   0.51300    1.000000    
     48 O     c    0.952763 *  0.861855 *  0.091228 *   0.51300    1.000000    
     49 O     c    0.317505 *  0.573556 *  0.087613 *   0.51300    1.000000    
     50 O     c    0.204212 *  0.847510 *  0.260789 *   0.51300    1.000000    
     51 O     c    0.806183 *  0.582218 *  0.087108 *   0.51300    1.000000    
     52 O     c    0.708242 *  0.827713 *  0.278188 *   0.51300    1.000000    
     53 O     c    0.066775 *  0.064686 *  0.590576 *   0.51300    1.000000    
     54 O     c    0.468848 *  0.300736 *  0.429607 *   0.51300    1.000000    
     55 O     c    0.595448 *  0.098491 *  0.599338 *   0.51300    1.000000    
     56 O     c    0.967768 *  0.369149 *  0.425022 *   0.51300    1.000000    
     57 O     c    0.310960 *  0.073351 *  0.430674 *   0.51300    1.000000    
     58 O     c    0.213159 *  0.350171 *  0.596437 *   0.51300    1.000000    
     59 O     c    0.831874 *  0.109947 *  0.429991 *   0.51300    1.000000    
     60 O     c    0.719647 *  0.325100 *  0.594836 *   0.51300    1.000000    
     61 O     c    0.061324 *  0.568614 *  0.593898 *   0.51300    1.000000    
     62 O     c    0.454947 *  0.804721 *  0.433451 *   0.51300    1.000000    
     63 O     c    0.558797 *  0.608728 *  0.601784 *   0.51300    1.000000    
     64 O     c    0.958363 *  0.866757 *  0.431152 *   0.51300    1.000000    
     65 O     c    0.316817 *  0.576705 *  0.442962 *   0.51300    1.000000    
     66 O     c    0.211558 *  0.836505 *  0.582321 *   0.51300    1.000000    
     67 O     c    0.809048 *  0.598410 *  0.430684 *   0.51300    1.000000    
     68 O     c    0.713423 *  0.820750 *  0.593497 *   0.51300    1.000000    
     69 O     c    0.054941 *  0.064953 *  0.935809 *   0.51300    1.000000    
     70 O     c    0.473701 *  0.315271 *  0.755339 *   0.51300    1.000000    
     71 O     c    0.566791 *  0.117518 *  0.921019 *   0.51300    1.000000    
     72 O     c    0.963179 *  0.370134 *  0.766370 *   0.51300    1.000000    
     73 O     c    0.312118 *  0.088984 *  0.764756 *   0.51300    1.000000    
     74 O     c    0.219277 *  0.358856 *  0.922583 *   0.51300    1.000000    
     75 O     c    0.823607 *  0.103854 *  0.778199 *   0.51300    1.000000    
     76 O     c    0.721772 *  0.340707 *  0.917876 *   0.51300    1.000000    
     77 O     c    0.062065 *  0.568253 *  0.928538 *   0.51300    1.000000    
     78 O     c    0.454757 *  0.813947 *  0.752186 *   0.51300    1.000000    
     79 O     c    0.558686 *  0.619339 *  0.921350 *   0.51300    1.000000    
     80 O     c    0.949098 *  0.866970 *  0.763363 *   0.51300    1.000000    
     81 O     c    0.300031 *  0.594764 *  0.755392 *   0.51300    1.000000    
     82 O     c    0.205857 *  0.845596 *  0.940584 *   0.51300    1.000000    
     83 O     c    0.806944 *  0.595125 *  0.772006 *   0.51300    1.000000    
     84 O     c    0.705902    0.844041    0.916685     0.51300    1.000000    
     85 Tc    s    0.343105 *  0.695605 *  0.259774 *   1.02900    1.000000    
     86 Tc    s    0.365402 *  0.207331 *  0.928709 *   1.02900    1.000000    
     87 Tc    s    0.847676 *  0.980732 *  0.597299 *   1.02900    1.000000    
     88 Tc    s    0.840458 *  0.978191 *  0.264846 *   1.02900    1.000000    
     89 Tc    s    0.357278 *  0.711608 *  0.933684 *   1.02900    1.000000    
     90 Tc    s    0.647552 *  0.711888 *  0.098620 *   1.02900    1.000000    
     91 Tc    s    0.856571 *  0.473726 *  0.263817 *   1.02900    1.000000    
     92 Tc    s    0.362799 *  0.195004 *  0.261175 *   1.02900    1.000000    
     93 Tc    s    0.154453 *  0.966439 *  0.761271 *   1.02900    1.000000    
     94 Tc    s    0.856494 *  0.474052 *  0.594351 *   1.02900    1.000000    
     95 Tc    s    0.363422 *  0.198984 *  0.596623 *   1.02900    1.000000    
     96 Tc    s    0.656714 *  0.212209 *  0.096133 *   1.02900    1.000000    
     97 O     s    0.069467 *  0.049609 *  0.260731 *  -2.51300    1.000000    
     98 O     s    0.460867 *  0.292152 *  0.103101 *  -2.51300    1.000000    
     99 O     s    0.590762 *  0.109252 *  0.274069 *  -2.51300    1.000000    
    100 O     s    0.971722 *  0.386859 *  0.083966 *  -2.51300    1.000000    
    101 O     s    0.293309 *  0.084544 *  0.093522 *  -2.51300    1.000000    
    102 O     s    0.209545 *  0.361039 *  0.263630 *  -2.51300    1.000000    
    103 O     s    0.801857 *  0.070588 *  0.079950 *  -2.51300    1.000000    
    104 O     s    0.718924 *  0.325119 *  0.279659 *  -2.51300    1.000000    
    105 O     s    0.090161 *  0.559820 *  0.262024 *  -2.51300    1.000000    
    106 O     s    0.455941 *  0.797128 *  0.100210 *  -2.51300    1.000000    
    107 O     s    0.565570 *  0.618249 *  0.273715 *  -2.51300    1.000000    
    108 O     s    0.956554 *  0.879189 *  0.083455 *  -2.51300    1.000000    
    109 O     s    0.298852 *  0.580767 *  0.090699 *  -2.51300    1.000000    
    110 O     s    0.201327 *  0.857166 *  0.261223 *  -2.51300    1.000000    
    111 O     s    0.804904 *  0.569546 *  0.082060 *  -2.51300    1.000000    
    112 O     s    0.707307 *  0.821639 *  0.283618 *  -2.51300    1.000000    
    113 O     s    0.071121 *  0.051010 *  0.585785 *  -2.51300    1.000000    
    114 O     s    0.475630 *  0.282793 *  0.431380 *  -2.51300    1.000000    
    115 O     s    0.599256 *  0.115120 *  0.598758 *  -2.51300    1.000000    
    116 O     s    0.976002 *  0.386614 *  0.424602 *  -2.51300    1.000000    
    117 O     s    0.298180 *  0.078591 *  0.429965 *  -2.51300    1.000000    
    118 O     s    0.209033 *  0.361988 *  0.596281 *  -2.51300    1.000000    
    119 O     s    0.811384 *  0.100765 *  0.430233 *  -2.51300    1.000000    
    120 O     s    0.718424 *  0.316889 *  0.595897 *  -2.51300    1.000000    
    121 O     s    0.065271 *  0.550328 *  0.594677 *  -2.51300    1.000000    
    122 O     s    0.459300 *  0.784558 *  0.441703 *  -2.51300    1.000000    
    123 O     s    0.559941 *  0.626168 *  0.599921 *  -2.51300    1.000000    
    124 O     s    0.967974 *  0.880859 *  0.431572 *  -2.51300    1.000000    
    125 O     s    0.300459 *  0.586202 *  0.447213 *  -2.51300    1.000000    
    126 O     s    0.219514 *  0.837324 *  0.577987 *  -2.51300    1.000000    
    127 O     s    0.794925 *  0.591349 *  0.431504 *  -2.51300    1.000000    
    128 O     s    0.706720 *  0.810447 *  0.596364 *  -2.51300    1.000000    
    129 O     s    0.052517 *  0.049395 *  0.940324 *  -2.51300    1.000000    
    130 O     s    0.481512 *  0.299599 *  0.754466 *  -2.51300    1.000000    
    131 O     s    0.568952 *  0.133312 *  0.917694 *  -2.51300    1.000000    
    132 O     s    0.967115 *  0.392089 *  0.772629 *  -2.51300    1.000000    
    133 O     s    0.305332 *  0.098282 *  0.761973 *  -2.51300    1.000000    
    134 O     s    0.214101 *  0.369677 *  0.922816 *  -2.51300    1.000000    
    135 O     s    0.808155 *  0.094447 *  0.780770 *  -2.51300    1.000000    
    136 O     s    0.729474 *  0.340049 *  0.911811 *  -2.51300    1.000000    
    137 O     s    0.060806 *  0.550999 *  0.926948 *  -2.51300    1.000000    
    138 O     s    0.456822 *  0.794549 *  0.745590 *  -2.51300    1.000000    
    139 O     s    0.562210 *  0.635031 *  0.916010 *  -2.51300    1.000000    
    140 O     s    0.946826 *  0.885396 *  0.770893 *  -2.51300    1.000000    
    141 O     s    0.289252 *  0.599194 *  0.746750 *  -2.51300    1.000000    
    142 O     s    0.206992 *  0.851910 *  0.946438 *  -2.51300    1.000000    
    143 O     s    0.796970 *  0.587446 *  0.776781 *  -2.51300    1.000000    
    144 O     s    0.712567 *  0.840648 *  0.909778 *  -2.51300    1.000000    
--------------------------------------------------------------------------------



  Distance calculation :


  Cutoff for distances  =      4.400000 Angstroms

--------------------------------------------------------------------------------
  Asymmetric unit site  Full lattice sites    No.  Distance      No.  Distance
      No.   At.No.            At.No.                (Angs)             (Angs) 
--------------------------------------------------------------------------------
       1   Tc    core        Tc    core         1    2.7687        1    2.9870
                             Tc    shell        1    0.0187        1    2.7864
                                                1    3.0197
                             Mn    core         1    2.8877        1    3.0376
                                                1    3.1011        1    3.1241
                                                1    3.3871        1    3.3929
                             O     core         1    1.8758        1    1.8989
                                                1    1.9550        1    1.9849
                                                1    2.0667        1    2.1034
                                                1    2.5563        1    3.2965
                                                1    3.3047        1    3.4568
                                                1    3.4631        1    3.5288
                                                1    3.5977        1    3.8689
                                                1    3.9173        1    3.9626
                                                1    4.0024        1    4.0143
                                                1    4.0676        1    4.0736
                                                1    4.1522        1    4.2896
                                                1    4.3386        1    4.3813
                             O     shell        1    1.8431        1    1.9302
                                                1    1.9591        1    1.9849
                                                1    2.0518        1    2.0961
                                                1    2.5957        1    3.2436
                                                1    3.2861        1    3.3758
                                                1    3.4378        1    3.5561
                                                1    3.5563        1    3.9224
                                                1    3.9571        1    4.0315
                                                1    4.0405        1    4.0529
                                                1    4.1347        1    4.1366
                                                1    4.1606        1    4.3102
                                                1    4.3257        1    4.3641
                                                1    4.3743        1    4.3921
                             Li    core         1    2.6734        1    2.8758
                                                1    3.0675        1    3.9352
                                                1    3.9957        1    4.0370
                                                1    4.0429        1    4.0567
                                                1    4.1612
--------------------------------------------------------------------------------
       2   Tc    core        Tc    core         1    2.8306        1    2.8411
                                                1    2.9213        1    3.2649
                             Tc    shell        1    0.0259        1    2.8428
                                                1    2.8528        1    2.9386
                                                1    3.2771
                             Mn    core         1    2.9435        1    3.3502
                                                1    3.4017        1    3.4691
                             O     core         1    1.8510        1    1.9108
                                                1    1.9529        1    1.9531
                                                1    1.9550        1    2.0352
                                                1    3.0795        1    3.3886
                                                1    3.4381        1    3.4600
                                                1    3.6121        1    3.6709
                                                1    3.6920        1    3.7529
                                                1    4.0012        1    4.0673
                                                1    4.0678        1    4.1142
                                                1    4.1497        1    4.1564
                                                1    4.1577        1    4.2514
                                                1    4.2798        1    4.3510
                                                1    4.3639        1    4.3780
                             O     shell        1    1.8361        1    1.8925
                                                1    1.9131        1    1.9365
                                                1    2.0040        1    2.0615
                                                1    3.1657        1    3.4515
                                                1    3.4994        1    3.5158
                                                1    3.5944        1    3.6350
                                                1    3.6756        1    3.8482
                                                1    4.0826        1    4.1286
                                                1    4.1582        1    4.1844
                                                1    4.2007        1    4.2050
                                                1    4.2384        1    4.2448
                                                1    4.2581        1    4.2593
                                                1    4.3450
                             Li    core         1    2.6584        1    2.7537
                                                1    3.1962        1    3.7951
                                                1    3.8225        1    3.9792
                                                1    4.0398        1    4.2743
                                                1    4.3405
--------------------------------------------------------------------------------
       3   Tc    core        Tc    core         1    2.8477        1    3.0381
                             Tc    shell        1    0.0214        1    2.8473
                                                1    3.0486
                             Mn    core         1    2.8324        1    3.0045
                                                1    3.1041        1    3.1320
                                                1    3.3773        1    3.4686
                             O     core         1    1.8838        1    1.9394
                                                1    1.9492        1    1.9907
                                                1    2.0274        1    2.0788
                                                1    2.5151        1    3.2870
                                                1    3.3378        1    3.4437
                                                1    3.4886        1    3.5140
                                                1    3.5247        1    3.7948
                                                1    3.8991        1    3.9566
                                                1    3.9582        1    4.0688
                                                1    4.0703        1    4.0807
                                                1    4.1261        1    4.2897
                                                1    4.3201        1    4.3617
                             O     shell        1    1.8524        1    1.9375
                                                1    1.9420        1    2.0004
                                                1    2.0523        1    2.0715
                                                1    2.5585        1    3.2280
                                                1    3.3286        1    3.3746
                                                1    3.5051        1    3.5367
                                                1    3.5521        1    3.7955
                                                1    3.9718        1    3.9773
                                                1    4.0481        1    4.1098
                                                1    4.1511        1    4.2240
                                                1    4.2427        1    4.2489
                                                1    4.2848        1    4.3249
                                                1    4.3791        1    4.3895
                             Li    core         1    2.6551        1    2.7821
                                                1    3.0409        1    3.8491
                                                1    3.9136        1    3.9475
                                                1    3.9624        1    4.1834
                                                1    4.1992
--------------------------------------------------------------------------------
       4   Tc    core        Tc    core         1    2.8477        1    3.0896
                                                1    3.3840
                             Tc    shell        1    2.8490        1    3.0979
                                                1    3.3605
                             Mn    core         1    2.9007        1    3.0462
                                                1    3.0594        1    3.0675
                                                1    3.4031
                             O     core         1    1.8493        1    1.8574
                                                1    1.8815        1    2.0590
                                                1    2.1018        1    2.1289
                                                1    2.4905        1    3.3794
                                                1    3.4542        1    3.4564
                                                2    3.4960        1    3.5320
                                                1    3.7705        1    3.8687
                                                1    4.0201        1    4.0353
                                                1    4.0494        1    4.0602
                                                1    4.0890        1    4.1162
                                                1    4.3158        1    4.3345
                                                1    4.3642
                             O     shell        1    1.8372        1    1.8439
                                                1    1.9023        1    2.0426
                                                1    2.0867        1    2.1389
                                                1    2.5363        1    3.4007
                                                1    3.4216        1    3.4432
                                                1    3.4635        1    3.4945
                                                1    3.4975        1    3.7975
                                                1    3.9439        1    4.0701
                                                1    4.0953        1    4.1343
                                                1    4.1769        1    4.1856
                                                1    4.2569        1    4.2969
                                                1    4.3098        1    4.3919
                             Li    core         1    2.6654        1    2.8565
                                                1    2.9960        1    3.8539
                                                1    3.8996        1    3.9832
                                                1    3.9927        1    4.0493
                                                1    4.0937
--------------------------------------------------------------------------------
       5   Tc    core        Tc    core         1    2.7687        1    2.8903
                                                1    3.3817
                             Tc    shell        1    0.0256        1    2.7825
                                                1    2.9154        1    3.3567
                             Mn    core         1    2.9223        1    2.9712
                                                1    3.2663        1    3.3200
                                                1    3.3393
                             O     core         1    1.8502        1    1.8821
                                                1    1.9080        1    1.9742
                                                1    1.9819        1    2.0283
                                                1    2.9657        1    3.3230
                                                1    3.3544        1    3.5001
                                                1    3.5060        1    3.5191
                                                1    3.5605        1    3.7436
                                                1    3.8642        1    3.9069
                                                1    4.0921        1    4.1579
                                                1    4.1712        1    4.1794
                                                1    4.1872        1    4.2439
                                                1    4.2812        1    4.3513
                                                1    4.3584
                             O     shell        1    1.8326        1    1.8856
                                                1    1.8940        1    1.9532
                                                1    2.0024        1    2.0371
                                                1    3.0538        1    3.3696
                                                1    3.4036        1    3.4817
                                                1    3.4821        1    3.5094
                                                1    3.5390        1    3.8049
                                                1    3.9455        1    3.9606
                                                1    4.1011        1    4.1824
                                                1    4.2040        1    4.2462
                                                1    4.2840        1    4.3117
                                                1    4.3320        1    4.3396
                                                1    4.3637        1    4.3787
                                                1    4.3830        1    4.3875
                             Li    core         1    2.6495        1    2.8771
                                                1    3.0307        1    3.7429
                                                1    3.8770        1    4.0376
                                                1    4.1356        1    4.2753
                                                1    4.3436
--------------------------------------------------------------------------------
       6   Tc    core        Tc    core         1    2.8903        1    2.9870
                                                1    3.2482        1    3.3840
                             Tc    shell        1    0.0357        1    2.9126
                                                1    3.0048        1    3.2453
                                                1    3.3801
                             Mn    core         1    2.8348        1    2.8844
                                                1    3.3325        1    3.4561
                             O     core         1    1.8839        1    1.9073
                                                1    1.9115        1    1.9451
                                                1    1.9730        1    2.0832
                                                1    3.0909        1    3.1726
                                                1    3.3382        1    3.3640
                                                1    3.4331        1    3.5519
                                                1    3.7937        1    3.8811
                                                1    3.9338        1    3.9377
                                                1    4.1246        1    4.1884
                                                1    4.2084        1    4.2189
                                                1    4.2463        1    4.3106
                                                1    4.3190        1    4.3213
                                                1    4.3359        1    4.3389
                                                1    4.3801
                             O     shell        1    1.8571        1    1.8625
                                                1    1.8710        1    1.9573
                                                1    1.9760        1    2.1254
                                                1    3.2010        1    3.2910
                                                1    3.2979        1    3.3391
                                                1    3.4301        1    3.5455
                                                1    3.6781        1    3.9204
                                                1    4.0051        1    4.0751
                                                1    4.2188        1    4.2268
                                                1    4.2580        1    4.2673
                                                1    4.3040        1    4.3325
                                                1    4.3526        1    4.3880
                                                1    4.3952
                             Li    core         1    2.8217        1    2.8644
                                                1    3.1180        1    3.1324
                                                1    3.5129        1    3.6388
--------------------------------------------------------------------------------
       7   Tc    core        Tc    core         1    2.8231        1    3.2482
                                                1    3.3771
                             Tc    shell        1    0.0143        1    2.8295
                                                1    3.2417        1    3.3484
                             Mn    core         1    2.8914        1    2.9859
                                                1    3.0166        1    3.2404
                                                1    3.3484
                             O     core         1    1.8190        1    1.8862
                                                1    1.9018        1    1.9609
                                                1    2.0483        1    2.2663
                                                1    2.8969        1    3.3791
                                                1    3.3858        1    3.4274
                                                1    3.4841        1    3.5257
                                                1    3.5978        1    3.7101
                                                1    4.0192        1    4.0510
                                                1    4.0519        1    4.0821
                                                1    4.0873        1    4.1173
                                                1    4.1797        1    4.2619
                                                1    4.2851        1    4.3914
                             O     shell        1    1.8498        1    1.8622
                                                1    1.8980        1    1.9214
                                                1    2.0237        1    2.2386
                                                1    2.9179        1    3.3126
                                                1    3.4231        1    3.4520
                                                1    3.4674        1    3.4930
                                                1    3.5495        1    3.8053
                                                1    4.0770        1    4.1303
                                                1    4.1341        1    4.1540
                                                1    4.1559        1    4.2292
                                                1    4.2315        1    4.2436
                                                1    4.3264        1    4.3432
                                                1    4.3618        1    4.3813
                                                1    4.3902
                             Li    core         1    2.6813        1    2.8461
                                                1    3.0364        1    3.7995
                                                1    3.9468        1    3.9748
                                                1    4.0745        1    4.1799
                                                1    4.2035
--------------------------------------------------------------------------------
       8   Tc    core        Tc    core         1    2.8411        1    2.8974
                                                1    2.9345
                             Tc    shell        1    0.0162        1    2.8386
                                                1    2.8851        1    2.9556
                             Mn    core         1    2.9892        1    3.2412
                                                1    3.2666        1    3.4527
                                                1    3.5001
                             O     core         1    1.8854        1    1.9200
                                                1    1.9235        1    1.9756
                                                1    1.9922        1    2.2069
                                                1    2.9468        1    3.3853
                                                1    3.4925        1    3.4985
                                                1    3.5179        1    3.5739
                                                1    3.6751        1    3.8829
                                                1    3.9314        1    3.9471
                                                1    4.0540        1    4.0621
                                                1    4.0911        1    4.1297
                                                1    4.1534        1    4.2366
                                                1    4.3452        1    4.3715
                                                1    4.3820
                             O     shell        1    1.8372        1    1.8747
                                                1    1.9175        1    1.9547
                                                1    2.0795        1    2.1726
                                                1    2.9530        1    3.3828
                                                1    3.4981        1    3.5010
                                                1    3.5594        1    3.5790
                                                1    3.6546        1    3.9565
                                                1    4.0500        1    4.0608
                                                1    4.0792        1    4.1261
                                                1    4.1356        1    4.2014
                                                1    4.2105        1    4.2604
                                                1    4.3220        1    4.3415
                                                1    4.3736        1    4.3926
                             Li    core         1    2.6430        1    2.7620
                                                1    3.1024        1    3.8228
                                                1    3.8834        1    3.9474
                                                1    4.0226        1    4.1181
                                                1    4.2838
--------------------------------------------------------------------------------
       9   Tc    core        Tc    core         1    3.0381        1    3.1776
                                                1    3.2649        1    3.3817
                             Tc    shell        1    0.0286        1    3.0556
                                                1    3.1866        1    3.2623
                                                1    3.3714
                             Mn    core         1    2.8632        1    2.8776
                                                1    2.9356        1    3.4020
                             O     core         1    1.8057        1    1.8799
                                                1    1.9533        1    1.9852
                                                1    2.0448        1    2.0533
                                                1    3.0505        1    3.1925
                                                1    3.2969        1    3.3063
                                                1    3.4521        1    3.4913
                                                1    3.7651        1    3.8961
                                                1    3.9696        1    4.1233
                                                1    4.1257        1    4.1406
                                                1    4.1580        1    4.1772
                                                1    4.2223        1    4.2357
                                                1    4.2648        1    4.3282
                                                1    4.3352        1    4.3511
                                                1    4.3887
                             O     shell        1    1.8164        1    1.8391
                                                1    1.9306        1    1.9930
                                                1    1.9977        1    2.0869
                                                1    3.1600        1    3.2805
                                                1    3.2867        1    3.2910
                                                1    3.3719        1    3.3755
                                                1    3.6954        1    3.9949
                                                1    4.0586        1    4.2180
                                                1    4.2299        1    4.2541
                                                1    4.2649        1    4.2730
                                                1    4.2732        1    4.2757
                                                1    4.2882        1    4.3180
                                                1    4.3333
                             Li    core         1    2.8709        1    2.9390
                                                1    3.1052        1    3.1667
                                                1    3.4735        1    3.5871
--------------------------------------------------------------------------------
      10   Tc    core        Tc    core         1    2.8231
                             Tc    shell        1    0.0156        1    2.8248
                             Mn    core         1    2.8545        1    2.9480
                                                1    2.9560        1    3.2314
                                                1    3.2833        1    3.3433
                                                1    3.3636
                             O     core         1    1.8676        1    1.8731
                                                1    1.9600        1    2.0036
                                                1    2.0060        1    2.0111
                                                1    2.9439        1    3.2810
                                                1    3.2986        1    3.3609
                                                1    3.5062        1    3.5115
                                                1    3.6249        1    3.7182
                                                1    3.8470        1    3.9749
                                                1    4.0251        1    4.0542
                                                1    4.0608        1    4.0717
                                                1    4.1003        1    4.2420
                                                1    4.2840        1    4.3116
                                                1    4.3726        1    4.3779
                                                1    4.3967
                             O     shell        1    1.8607        1    1.9336
                                                1    1.9680        1    1.9718
                                                1    1.9735        1    1.9740
                                                1    3.0091        1    3.2147
                                                1    3.2763        1    3.2891
                                                1    3.4441        1    3.4515
                                                1    3.5998        1    3.8131
                                                1    3.9497        1    3.9720
                                                1    4.0112        1    4.0874
                                                1    4.0927        1    4.1012
                                                1    4.1938        1    4.2126
                                                1    4.2388        1    4.2537
                                                1    4.3055        1    4.3420
                                                1    4.3478        1    4.3976
                             Li    core         1    2.7019        1    2.8194
                                                1    3.1082        1    3.8650
                                                1    3.8819        1    3.9541
                                                1    4.0663        1    4.0961
                                                1    4.2006
--------------------------------------------------------------------------------
      11   Tc    core        Tc    core         1    2.8306        1    2.8974
                                                1    3.1776
                             Tc    shell        1    0.0148        1    2.8335
                                                1    2.8859        1    3.1907
                             Mn    core         1    2.9773        1    2.9821
                                                1    3.2975        1    3.4696
                                                1    3.4708
                             O     core         1    1.8191        1    1.9135
                                                1    1.9598        1    1.9718
                                                1    1.9967        1    2.2608
                                                1    2.9210        1    3.3774
                                                1    3.3878        1    3.4157
                                                1    3.4653        1    3.5833
                                                1    3.6714        1    3.8324
                                                1    3.9408        1    4.0161
                                                1    4.0518        1    4.1279
                                                1    4.1403        1    4.1642
                                                1    4.1780        1    4.2418
                                                1    4.3688        1    4.3946
                             O     shell        1    1.7684        1    1.9135
                                                1    1.9194        1    1.9499
                                                1    2.0669        1    2.2318
                                                1    2.9460        1    3.3405
                                                1    3.3445        1    3.4810
                                                1    3.5268        1    3.5304
                                                1    3.6404        1    3.9219
                                                1    4.0456        1    4.0956
                                                1    4.1389        1    4.1476
                                                1    4.2112        1    4.2386
                                                1    4.2482        1    4.2649
                                                1    4.3229        1    4.3365
                                                1    4.3538        1    4.3965
                             Li    core         1    2.6079        1    2.7289
                                                1    3.0984        1    3.8762
                                                1    3.9207        1    3.9934
                                                1    3.9983        1    4.1884
                                                1    4.2179
--------------------------------------------------------------------------------
      12   Tc    core        Tc    core         1    2.9213        1    2.9345
                                                1    3.0896        1    3.3771
                             Tc    shell        1    0.0332        1    2.9391
                                                1    2.9498        1    3.0931
                                                1    3.3892
                             Mn    core         1    2.8568        1    2.8571
                                                1    3.2705        1    3.4509
                             O     core         1    1.8156        1    1.9012
                                                1    1.9305        1    1.9698
                                                1    1.9838        1    2.0566
                                                1    3.1410        1    3.2680
                                                1    3.3321        1    3.3949
                                                1    3.4049        1    3.4789
                                                1    3.7658        1    3.8031
                                                1    3.9522        1    4.0480
                                                1    4.0933        1    4.1194
                                                1    4.1433        1    4.2149
                                                1    4.2189        1    4.2326
                                                1    4.2335        1    4.3111
                                                1    4.3665        1    4.3710
                                                1    4.3736
                             O     shell        1    1.8534        1    1.8573
                                                1    1.8780        1    1.8864
                                                1    1.9951        1    2.1124
                                                1    3.2175        1    3.2772
                                                1    3.3418        1    3.3501
                                                1    3.4135        1    3.4140
                                                1    3.6515        1    3.8637
                                                1    4.0218        1    4.0682
                                                1    4.1121        1    4.2180
                                                1    4.2215        1    4.2696
                                                1    4.2851        1    4.3402
                                                1    4.3474        1    4.3782
                                                1    4.3825
                             Li    core         1    2.8303        1    2.9702
                                                1    3.0332        1    3.2418
                                                1    3.4805        1    3.5440
--------------------------------------------------------------------------------
      13   Mn    core        Tc    core         1    2.8632        1    3.0045
                                                1    3.0462        1    3.2666
                                                1    3.2975        1    3.3929
                             Tc    shell        1    2.8641        1    3.0232
                                                1    3.0462        1    3.2532
                                                1    3.2956        1    3.3802
                             Mn    core         1    2.8284        1    3.3935
                             O     core         1    1.8076        1    1.8422
                                                1    1.8600        1    1.8702
                                                1    1.8723        1    1.8864
                                                1    3.1144        1    3.1200
                                                1    3.3995        1    3.4635
                                                1    3.4764        1    3.4829
                                                1    3.9302        1    3.9388
                                                1    3.9701        1    3.9870
                                                1    4.0427        1    4.1440
                                                1    4.1506        1    4.1546
                                                1    4.2747        1    4.2969
                                                1    4.3005        1    4.3375
                                                1    4.3417        1    4.3552
                                                1    4.3590        1    4.3935
                             O     shell        1    1.7303        1    1.7474
                                                1    1.7500        1    1.7814
                                                1    1.7987        1    1.8649
                                                1    3.2419        1    3.2496
                                                1    3.3508        1    3.4499
                                                1    3.4754        1    3.5067
                                                1    3.8029        1    4.0590
                                                1    4.0750        1    4.0839
                                                1    4.1904        1    4.1976
                                                1    4.2142        1    4.2233
                                                1    4.2801        1    4.2813
                                                1    4.2859        1    4.3300
                                                1    4.3809        1    4.3894
                                                1    4.3922
                             Li    core         1    2.7854        1    2.8046
                                                1    3.0597        1    3.1074
                                                1    3.5000        1    3.5434
--------------------------------------------------------------------------------
      14   Mn    core        Tc    core         1    2.9480        1    3.3200
                                                1    3.4691        1    3.4696
                             Tc    shell        1    2.9573        1    3.2971
                                                1    3.4485        1    3.4674
                             Mn    core         1    2.8143        1    2.8780
                                                1    2.8884        1    3.2274
                             O     core         1    1.7844        1    1.8544
                                                1    1.8663        1    1.8732
                                                1    1.8959        1    1.9012
                                                1    3.2217        1    3.2464
                                                1    3.2661        1    3.3361
                                                1    3.4037        1    3.4146
                                                1    3.8188        1    3.8661
                                                1    3.9091        1    4.0887
                                                1    4.1379        1    4.1441
                                                1    4.1523        1    4.1894
                                                1    4.2121        1    4.2316
                                                1    4.2823        1    4.2861
                                                1    4.2985        1    4.3002
                                                1    4.3018
                             O     shell        1    1.7459        1    1.7655
                                                1    1.7793        1    1.7854
                                                1    1.7986        1    1.8151
                                                1    3.1818        1    3.2957
                                                1    3.3094        1    3.3253
                                                1    3.3415        1    3.3518
                                                1    3.7621        1    3.8514
                                                1    3.9846        1    4.1059
                                                1    4.1356        1    4.1587
                                                1    4.2031        1    4.2339
                                                1    4.2707        1    4.3179
                                                1    4.3194        1    4.3414
                                                1    4.3682        1    4.3706
                                                1    4.3732        1    4.3933
                                                1    4.3952
                             Li    core         1    2.9399        1    2.9835
                                                1    3.1555        1    3.2124
                                                1    3.5084        1    3.5677
--------------------------------------------------------------------------------
      15   Mn    core        Tc    core         1    3.0166        1    3.1011
                                                1    3.2663        1    3.4017
                                                1    3.4527
                             Tc    shell        1    3.0080        1    3.1000
                                                1    3.2598        1    3.3788
                                                1    3.4535
                             Mn    core         1    2.8744        1    2.8780
                                                1    2.9177
                             O     core         1    1.7866        1    1.8692
                                                1    1.8811        1    1.8836
                                                1    1.8971        1    1.9094
                                                1    3.0830        1    3.2771
                                                1    3.3952        1    3.3961
                                                1    3.4137        1    3.4844
                                                1    3.8617        1    3.8619
                                                1    3.9139        1    4.0961
                                                1    4.1089        1    4.1294
                                                1    4.1539        1    4.1568
                                                1    4.2349        1    4.2789
                                                1    4.2945        1    4.2995
                                                1    4.3142        1    4.3517
                                                1    4.3857
                             O     shell        1    1.6971        1    1.7709
                                                1    1.7862        1    1.8013
                                                1    1.8136        1    1.8464
                                                1    3.1741        1    3.2503
                                                1    3.2855        1    3.3173
                                                1    3.4574        1    3.4869
                                                1    3.7882        1    3.9019
                                                1    3.9968        1    4.1332
                                                1    4.2236        1    4.2247
                                                1    4.2259        1    4.2385
                                                1    4.2542        1    4.2893
                                                1    4.3320        1    4.3694
                             Li    core         1    2.9118        1    2.9422
                                                1    3.1846        1    3.2976
                                                1    3.5133        1    3.5914
--------------------------------------------------------------------------------
      16   Mn    core        Tc    core         1    2.8348        1    3.0376
                                                1    3.2314        1    3.2404
                                                1    3.4031        1    3.4686
                             Tc    shell        1    2.8421        1    3.0429
                                                1    3.2270        1    3.2392
                                                1    3.3988        1    3.4549
                             Mn    core         1    2.8494        1    2.8856
                             O     core         1    1.7958        1    1.8169
                                                1    1.8458        1    1.8616
                                                1    1.8976        1    1.9063
                                                1    3.1552        1    3.1684
                                                1    3.3770        1    3.4212
                                                1    3.4350        1    3.4836
                                                1    3.8588        1    3.9251
                                                1    3.9357        1    3.9797
                                                1    4.1423        1    4.1435
                                                1    4.1748        1    4.2105
                                                1    4.2259        1    4.2505
                                                1    4.2647        1    4.3006
                                                1    4.3131        1    4.3539
                                                1    4.3576        1    4.3635
                                                1    4.3935
                             O     shell        1    1.7315        1    1.7364
                                                1    1.7455        1    1.7901
                                                1    1.8049        1    1.8076
                                                1    3.2578        1    3.2715
                                                1    3.3073        1    3.3877
                                                1    3.4570        1    3.5577
                                                1    3.8938        1    3.9919
                                                1    4.0083        1    4.0412
                                                1    4.1202        1    4.1528
                                                1    4.2302        1    4.2652
                                                1    4.2762        1    4.2780
                                                1    4.2796        1    4.3062
                                                1    4.3360        1    4.3755
                                                1    4.3892
                             Li    core         1    2.8437        1    2.8892
                                                1    3.1382        1    3.1687
                                                1    3.4804        1    3.4826
--------------------------------------------------------------------------------
      17   Mn    core        Tc    core         1    2.8844        1    2.9712
                                                1    3.2833        1    3.3773
                             Tc    shell        1    2.8768        1    2.9750
                                                1    3.2737        1    3.3621
                             Mn    core         1    2.8494        1    2.9451
                                                1    3.3136        1    3.3581
                             O     core         1    1.8131        1    1.8265
                                                1    1.8405        1    1.8514
                                                1    1.8940        1    1.9545
                                                1    3.0143        1    3.3057
                                                1    3.3575        1    3.3701
                                                1    3.4079        1    3.5066
                                                1    3.8438        1    3.8910
                                                1    3.9664        1    4.0154
                                                1    4.0799        1    4.0967
                                                1    4.1279        1    4.1721
                                                1    4.1746        1    4.1947
                                                1    4.2369        1    4.2694
                                                1    4.2974        1    4.3127
                                                1    4.3286        1    4.3887
                             O     shell        1    1.7070        1    1.7526
                                                1    1.7964        1    1.8063
                                                1    1.8184        1    1.8626
                                                1    3.0832        1    3.2878
                                                1    3.3363        1    3.3647
                                                1    3.3837        1    3.4442
                                                1    3.8331        1    3.8440
                                                1    4.0343        1    4.0820
                                                1    4.1623        1    4.1662
                                                1    4.2059        1    4.2089
                                                1    4.2153        1    4.2533
                                                1    4.2635        1    4.2810
                                                1    4.2896        1    4.2947
                                                1    4.3553        1    4.3816
                             Li    core         1    2.8548        1    2.9262
                                                1    3.0817        1    3.2489
                                                1    3.4899        1    3.5818
--------------------------------------------------------------------------------
      18   Mn    core        Tc    core         1    2.8568        1    2.9821
                                                1    2.9892        1    3.0675
                                                1    3.1041        1    3.3484
                                                1    3.3636
                             Tc    shell        1    2.8595        1    2.9783
                                                1    2.9934        1    3.0706
                                                1    3.0969        1    3.3576
                                                1    3.3620
                             Mn    core         1    2.8534
                             O     core         1    1.8127        1    1.8276
                                                1    1.8615        1    1.8621
                                                1    1.8779        1    1.8800
                                                1    3.1318        1    3.3379
                                                1    3.3782        1    3.4444
                                                1    3.4694        1    3.4750
                                                1    3.8634        1    3.8977
                                                1    3.9649        1    4.0564
                                                1    4.1051        1    4.1177
                                                1    4.1290        1    4.1983
                                                1    4.2293        1    4.2328
                                                1    4.2662        1    4.3524
                                                1    4.3719        1    4.3868
                                                1    4.3931        1    4.3968
                             O     shell        1    1.7115        1    1.7458
                                                1    1.7541        1    1.7667
                                                1    1.7802        1    1.8215
                                                1    3.2766        1    3.2983
                                                1    3.3888        1    3.4244
                                                1    3.4654        1    3.5163
                                                1    3.7932        1    3.9008
                                                1    4.0569        1    4.1525
                                                1    4.1538        1    4.1829
                                                1    4.2129        1    4.2717
                                                1    4.3134        1    4.3514
                                                1    4.3573        1    4.3687
                                                1    4.3876        1    4.3945
                             Li    core         1    2.8788        1    2.8840
                                                1    3.1750        1    3.2540
                                                1    3.4296        1    3.4775
--------------------------------------------------------------------------------
      19   Mn    core        Tc    core         1    2.8324        1    2.9007
                                                1    2.9356        1    3.2705
                                                1    3.4561
                             Tc    shell        1    2.8314        1    2.9011
                                                1    2.9438        1    3.2752
                                                1    3.4256
                             Mn    core         1    2.8830        1    3.2733
                                                1    3.3581
                             O     core         1    1.7820        2    1.8354
                                                1    1.8630        1    1.9032
                                                1    1.9218        1    2.9848
                                                1    3.2525        1    3.4517
                                                1    3.4814        1    3.5162
                                                1    3.5679        1    3.7248
                                                1    3.8046        1    3.8790
                                                1    3.9327        1    3.9979
                                                1    4.1036        1    4.1197
                                                1    4.1710        1    4.1919
                                                1    4.2050        1    4.2697
                                                1    4.2857        1    4.3129
                                                1    4.3619
                             O     shell        1    1.7116        1    1.7201
                                                1    1.7858        1    1.7923
                                                1    1.8157        1    1.8397
                                                1    3.0416        1    3.2432
                                                1    3.4734        1    3.4955
                                                1    3.5393        1    3.6320
                                                1    3.6978        1    3.8706
                                                1    3.9143        1    4.0309
                                                1    4.0556        1    4.1368
                                                1    4.2106        1    4.2351
                                                1    4.2640        1    4.2704
                                                1    4.2741        1    4.3011
                                                1    4.3146        1    4.3387
                             Li    core         1    2.5715        1    2.7767
                                                1    3.0809        1    3.8271
                                                1    3.8454        1    4.0678
                                                1    4.1141        1    4.2433
                                                1    4.3034
--------------------------------------------------------------------------------
      20   Mn    core        Tc    core         1    2.9560        1    2.9859
                                                1    3.1241        1    3.4708
                                                1    3.5001
                             Tc    shell        1    2.9715        1    2.9789
                                                1    3.1107        1    3.4585
                                                1    3.4914
                             Mn    core         1    2.8143        1    2.8744
                                                1    3.2373
                             O     core         1    1.8001        1    1.8723
                                                1    1.8783        1    1.8798
                                                1    1.8824        1    1.8836
                                                1    3.2237        1    3.2809
                                                1    3.3106        1    3.4337
                                                1    3.4524        1    3.4823
                                                1    3.7604        1    3.9003
                                                1    3.9730        1    4.0966
                                                1    4.1044        1    4.1259
                                                1    4.1343        1    4.1423
                                                1    4.1727        1    4.1934
                                                1    4.2412        1    4.2752
                                                1    4.2957        1    4.3811
                                                1    4.3817
                             O     shell        1    1.7310        1    1.7431
                                                1    1.7707        1    1.7863
                                                1    1.8077        1    1.8155
                                                1    3.2268        1    3.3606
                                                1    3.3641        1    3.3735
                                                1    3.4322        1    3.4496
                                                1    3.7656        1    3.8874
                                                1    3.9800        1    4.0564
                                                1    4.1641        1    4.1853
                                                1    4.2041        1    4.2302
                                                1    4.2547        1    4.2572
                                                1    4.2627        1    4.3331
                                                1    4.3350        1    4.3549
                                                1    4.3902
                             Li    core         1    2.8248        1    2.8705
                                                1    3.1909        1    3.2086
                                                1    3.4861        1    3.5642
--------------------------------------------------------------------------------
      21   Mn    core        Tc    core         1    2.8776        1    3.0594
                                                1    3.2412        1    3.3393
                                                1    3.3502        1    3.3871
                             Tc    shell        1    2.8763        1    3.0599
                                                1    3.2378        1    3.3446
                                                1    3.3449        1    3.3854
                             Mn    core         1    2.8284        1    2.8830
                             O     core         1    1.7977        1    1.8265
                                                1    1.8513        1    1.8552
                                                1    1.8598        1    1.9552
                                                1    3.0918        1    3.1956
                                                1    3.3796        1    3.4202
                                                1    3.4300        1    3.4646
                                                1    3.9418        1    3.9632
                                                1    3.9906        1    4.0675
                                                1    4.0677        1    4.1216
                                                1    4.1590        1    4.2106
                                                1    4.2612        1    4.2780
                                                2    4.2908        1    4.3363
                                                1    4.3639        1    4.3692
                                                1    4.3821        1    4.3886
                             O     shell        1    1.7433        1    1.7506
                                                1    1.7567        1    1.7644
                                                1    1.8030        1    1.8526
                                                1    3.1806        1    3.2051
                                                1    3.3421        1    3.3593
                                                1    3.3796        1    3.4457
                                                1    3.8658        1    4.0499
                                                1    4.0945        1    4.1533
                                                1    4.1795        1    4.2131
                                                1    4.2241        1    4.2747
                                                1    4.3071        1    4.3135
                                                1    4.3168        1    4.3420
                                                1    4.3698        1    4.3921
                             Li    core         1    2.7955        1    2.8677
                                                1    3.1386        1    3.1567
                                                1    3.5253        1    3.5697
--------------------------------------------------------------------------------
      22   Mn    core        Tc    core         1    2.8571        1    2.9435
                                                1    2.9773        1    3.1320
                                                1    3.3433
                             Tc    shell        1    2.8537        1    2.9639
                                                1    2.9853        1    3.1233
                                                1    3.3317
                             Mn    core         1    2.8534        1    3.2733
                                                1    3.3649
                             O     core         1    1.8114        1    1.8320
                                                1    1.8519        1    1.8600
                                                1    1.8724        1    1.8896
                                                1    3.0699        1    3.2967
                                                1    3.2985        1    3.3916
                                                1    3.4098        1    3.5101
                                                1    3.7704        1    3.8122
                                                1    4.0301        1    4.0517
                                                1    4.0734        1    4.1354
                                                1    4.1565        1    4.1642
                                                1    4.1814        1    4.2018
                                                1    4.2426        1    4.3444
                                                1    4.3551        1    4.3878
                                                1    4.3998
                             O     shell        1    1.7305        1    1.7590
                                                1    1.7606        1    1.7777
                                                1    1.7995        1    1.8416
                                                1    3.2040        1    3.2967
[...]
   64 O     x      -1.5714      0.1357     -0.1276
            y       0.2763     -1.0988      0.0483
            z       0.0215     -0.0164     -1.6794
-------------------------------------------------------------------------------
   65 O     x      -1.1924     -0.3750      0.0291
            y      -0.3165     -1.1241     -0.0336
            z      -0.0396      0.0171     -1.3317
-------------------------------------------------------------------------------
   66 O     x      -1.4824      0.4837     -0.3308
            y       0.5980     -1.5537      0.3655
            z      -0.2390      0.2865     -1.3831
-------------------------------------------------------------------------------
   67 O     x      -1.3217      0.3407      0.0470
            y       0.3835     -1.2571     -0.0542
            z       0.0676     -0.0591     -1.5140
-------------------------------------------------------------------------------
   68 O     x      -1.1236     -0.1536     -0.1451
            y      -0.1053     -1.0337     -0.1435
            z      -0.0680     -0.1189     -1.2115
-------------------------------------------------------------------------------
   69 O     x      -1.3670     -0.1222     -0.0157
            y      -0.0195     -0.8707      0.0458
            z      -0.0510      0.0046     -1.1814
-------------------------------------------------------------------------------
   70 O     x      -1.6487     -0.0359     -0.1177
            y      -0.2151     -1.1223     -0.0735
            z      -0.0241     -0.0453     -1.7376
-------------------------------------------------------------------------------
   71 O     x      -1.4436      0.1851     -0.0569
            y       0.1006     -1.0654     -0.0905
            z      -0.1844     -0.1231     -1.3175
-------------------------------------------------------------------------------
   72 O     x      -1.4181     -0.0448     -0.0765
            y       0.0603     -0.9046      0.1069
            z      -0.1771      0.0989     -1.3877
-------------------------------------------------------------------------------
   73 O     x      -1.6331     -0.5352      0.0105
            y      -0.4398     -1.5056     -0.0211
            z      -0.0085     -0.0540     -1.8258
-------------------------------------------------------------------------------
   74 O     x      -1.1449      0.1822      0.0587
            y       0.1892     -1.0314     -0.0223
            z       0.0186     -0.0145     -1.5221
-------------------------------------------------------------------------------
   75 O     x      -1.1947      0.3907     -0.0554
            y       0.4483     -1.3381      0.0974
            z      -0.0828      0.0736     -1.3217
-------------------------------------------------------------------------------
   76 O     x      -1.3602     -0.3753     -0.2340
            y      -0.5389     -1.4673     -0.2887
            z      -0.1726     -0.1831     -1.3906
-------------------------------------------------------------------------------
   77 O     x      -1.5226     -0.1571     -0.0116
            y      -0.0639     -0.8328      0.0684
            z       0.0144      0.0310     -1.3957
-------------------------------------------------------------------------------
   78 O     x      -1.8757      0.2629      0.0072
            y       0.1289     -0.9749      0.0558
            z       0.0427      0.1318     -1.3863
-------------------------------------------------------------------------------
   79 O     x      -1.5099      0.1932     -0.1722
            y       0.1393     -1.1591     -0.1323
            z      -0.2563     -0.2132     -1.2785
-------------------------------------------------------------------------------
   80 O     x      -1.5829     -0.0689     -0.1644
            y      -0.0339     -1.1012      0.1926
            z      -0.2681      0.1917     -1.4640
-------------------------------------------------------------------------------
   81 O     x      -1.2244     -0.3983      0.0348
            y      -0.3322     -1.1463      0.0626
            z       0.0299      0.0533     -1.3859
-------------------------------------------------------------------------------
   82 O     x      -1.4231      0.2616     -0.0612
            y       0.3066     -1.2873      0.1367
            z      -0.1186      0.1137     -1.4706
-------------------------------------------------------------------------------
   83 O     x      -1.4221      0.5442     -0.1563
            y       0.5623     -1.4453      0.1123
            z      -0.1017      0.0522     -1.3185
-------------------------------------------------------------------------------
   84 O     x      -1.5129     -0.5202     -0.2119
            y      -0.6105     -1.5284     -0.2331
            z      -0.1543     -0.2053     -1.2834
-------------------------------------------------------------------------------




  Elastic Constant Matrix: (Units=GPa)

-------------------------------------------------------------------------------
  Indices      1         2         3         4         5         6    
-------------------------------------------------------------------------------
       1    353.0187  141.7123  175.7315   -0.3085    5.4612    5.9290
       2    141.7123  363.9062  140.4517    0.2375    1.4503   -0.3675
       3    175.7315  140.4517  621.8262   -2.4928   -2.8608   -1.0452
       4     -0.3085    0.2375   -2.4928   80.0190    1.2353   -0.1974
       5      5.4612    1.4503   -2.8608    1.2353  137.2262    0.4847
       6      5.9290   -0.3675   -1.0452   -0.1974    0.4847  126.5151
-------------------------------------------------------------------------------


  Elastic Compliance Matrix: (Units=1/GPa)

-------------------------------------------------------------------------------
  Indices      1         2         3         4         5         6    
-------------------------------------------------------------------------------
       1    0.003683 -0.001130 -0.000787 -0.000005 -0.000150 -0.000182
       2   -0.001130  0.003358 -0.000439 -0.000028  0.000000  0.000059
       3   -0.000787 -0.000439  0.001930  0.000057  0.000075  0.000051
       4   -0.000005 -0.000028  0.000057  0.012501 -0.000111  0.000021
       5   -0.000150  0.000000  0.000075 -0.000111  0.007296 -0.000020
       6   -0.000182  0.000059  0.000051  0.000021 -0.000020  0.007913
-------------------------------------------------------------------------------

  Mechanical properties :

-------------------------------------------------------------------------------
  Convention :                    Reuss         Voigt         Hill
-------------------------------------------------------------------------------
  Bulk  Modulus (GPa)     =     234.77435     250.50469     242.63952
  Shear Modulus (GPa)     =     116.78671     127.47576     122.13124
-------------------------------------------------------------------------------
  Velocity S-wave (km/s)  =       4.55606       4.76000       4.65915
  Velocity P-wave (km/s)  =       8.33101       8.64493       8.48942
-------------------------------------------------------------------------------
  Compressibility (1/GPa) =    0.00425941
-------------------------------------------------------------------------------
  Stress axis :                     x             y             z
-------------------------------------------------------------------------------
  Youngs Moduli (GPa)     =     271.48458     297.82801     518.05649
-------------------------------------------------------------------------------
  Poissons Ratio (x)      =                     0.33666       0.40754
  Poissons Ratio (y)      =       0.30688                     0.22740
  Poissons Ratio (z)      =       0.21357       0.13073
-------------------------------------------------------------------------------


  Piezoelectric Strain Matrix: (Units=C/m**2)

-------------------------------------------------------------------------------
  Indices      1         2         3         4         5         6    
-------------------------------------------------------------------------------
       x    15.18837   3.76330   5.67975  -0.00927  -0.66662   2.20871
       y     1.96982   2.67778   0.59197  -1.87356   0.01792   1.61100
       z     0.00906  -3.37340  -3.68858   2.43285   1.62290  -0.93848
-------------------------------------------------------------------------------


  Piezoelectric Stress Matrix: (Units=10**-11 C/N)

-------------------------------------------------------------------------------
  Indices      1         2         3         4         5         6    
-------------------------------------------------------------------------------
       x     4.69223  -0.68954  -0.25739   0.01473  -0.67612   1.52440
       y     0.34771   0.66519  -0.16057  -2.34402   0.00551   1.25400
       z     0.66625  -0.98404  -0.54325   3.00952   1.13087  -0.78000
-------------------------------------------------------------------------------


  Static dielectric constant tensor : 

-------------------------------------------------------------------------------
              x         y         z
-------------------------------------------------------------------------------
       x    14.91476  -0.13956   0.87286
       y    -0.13956   7.97192   0.02287
       z     0.87286   0.02287  17.45606
--------------------------------------------------------------------------------

  High frequency dielectric constant tensor : 

-------------------------------------------------------------------------------
              x         y         z
-------------------------------------------------------------------------------
       x     4.40839  -0.01447   0.12717
       y    -0.01447   3.82192  -0.01710
       z     0.12717  -0.01710   4.42227
-------------------------------------------------------------------------------

  Static refractive indices : 

-------------------------------------------------------------------------------
    1 =    2.82293      2 =    3.82711      3 =    4.21035
-------------------------------------------------------------------------------

  High frequency refractive indices : 

-------------------------------------------------------------------------------
    1 =    1.95480      2 =    2.07074      3 =    2.13152
-------------------------------------------------------------------------------


  Phonon Calculation : 

  Number of k points for this configuration =        1

--------------------------------------------------------------------------------
  K point      1 =   0.000000  0.000000  0.000000  Weight =    1.000
--------------------------------------------------------------------------------

  Frequencies (cm-1) [NB: Negative implies an imaginary mode]:

    0.00    0.00    0.00   84.94   86.70   91.33   93.20  102.86  110.76
  114.49  116.57  118.50  119.01  123.88  126.08  126.96  129.48  132.69
  134.62  138.71  141.17  146.44  147.56  150.95  153.17  153.56  158.24
  159.01  160.10  163.95  165.52  167.74  168.33  171.16  172.78  173.75
  174.49  179.49  181.65  182.18  185.06  185.42  187.47  188.85  191.10
  192.28  195.05  197.27  197.97  199.16  199.69  204.56  205.96  208.26
  210.54  216.59  220.77  221.40  222.22  223.90  225.78  228.87  229.37
  232.86  234.00  235.82  236.86  240.40  243.24  245.24  245.90  248.06
  249.66  252.69  253.45  257.93  259.24  262.60  263.83  267.42  268.01
  276.11  277.11  281.11  282.49  287.25  289.47  290.27  293.56  297.45
  298.27  301.28  303.28  306.98  309.79  310.78  312.04  313.57  316.69
  317.97  319.44  321.01  323.07  324.57  328.19  328.70  330.39  335.26
  337.15  338.00  340.15  342.01  345.01  347.88  349.38  351.64  352.56
  355.76  358.76  359.00  361.34  362.48  364.93  366.79  366.92  369.08
  370.18  372.05  372.32  373.90  376.91  379.37  380.38  382.26  384.20
  385.64  387.68  388.56  392.42  393.15  396.31  397.52  398.08  399.91
  400.61  402.45  404.12  407.51  407.87  409.98  412.74  413.75  415.58
  418.04  418.81  420.53  421.34  424.18  425.86  427.67  427.98  429.39
  430.28  432.15  433.38  434.77  437.73  439.82  442.22  443.60  445.36
  447.54  449.36  450.57  452.08  454.53  457.25  460.94  462.69  465.50
  468.14  470.01  472.43  474.25  476.38  477.35  481.42  487.25  489.61
  491.27  495.00  500.86  501.30  505.55  511.67  512.44  514.58  516.55
  519.33  520.58  521.23  523.67  525.54  528.65  531.36  533.09  534.99
  537.93  539.73  542.75  544.56  546.40  547.20  550.03  557.41  558.53
  564.48  570.41  572.45  573.47  578.39  581.24  583.92  585.67  589.37
  589.98  593.78  596.92  601.69  603.33  611.19  613.10  617.02  620.85
  622.78  625.75  630.82  636.35  638.97  642.40  647.31  652.58  657.96
  661.70  668.02  672.42  673.93  679.17  683.85  689.22  695.93  703.31


--------------------------------------------------------------------------------
  Phonon properties (per mole of unit cells): Temperature =      0.000 K
--------------------------------------------------------------------------------
  Zero point energy             =        5.740475 eV
--------------------------------------------------------------------------------

  Phonon density of states : 

--------------------------------------------------------------------------------
 Frequency (cm-1) Density of States                                             
--------------------------------------------------------------------------------
    0.00000 |**********************                                        0.012
   10.98925 |                                                              0.000
   21.97850 |                                                              0.000
   32.96776 |                                                              0.000
   43.95701 |                                                              0.000
   54.94626 |                                                              0.000
   65.93551 |                                                              0.000
   76.92477 |***************                                               0.008
   87.91402 |***************                                               0.008
   98.90327 |*******                                                       0.004
  109.89252 |*************************************                         0.020
  120.88178 |******************************                                0.016
  131.87103 |******************************                                0.016
  142.86028 |*************************************                         0.020
  153.84953 |******************************                                0.016
  164.83879 |****************************************************          0.028
  175.82804 |*************************************                         0.020
  186.81729 |*********************************************                 0.024
  197.80654 |*********************************************                 0.024
  208.79580 |***************                                               0.008
  219.78505 |****************************************************          0.028
  230.77430 |*************************************                         0.020
  241.76355 |*********************************************                 0.024
  252.75281 |******************************                                0.016
  263.74206 |**********************                                        0.012
  274.73131 |******************************                                0.016
  285.72056 |******************************                                0.016
  296.70982 |*************************************                         0.020
  307.69907 |*********************************************                 0.024
  318.68832 |*********************************************                 0.024
  329.67757 |*************************************                         0.020
  340.66683 |*************************************                         0.020
  351.65608 |*********************************************                 0.024
  362.64533 |****************************************************          0.028
  373.63458 |*********************************************                 0.024
  384.62384 |*************************************                         0.020
  395.61309 |****************************************************          0.028
  406.60234 |*********************************************                 0.024
  417.59159 |************************************************************  0.032
  428.58085 |*********************************************                 0.024
  439.57010 |*********************************************                 0.024
  450.55935 |*************************************                         0.020
  461.54860 |*************************************                         0.020
  472.53786 |******************************                                0.016
  483.52711 |**********************                                        0.012
  494.51636 |**********************                                        0.012
  505.50561 |******************************                                0.016
  516.49486 |*********************************************                 0.024
  527.48412 |*************************************                         0.020
  538.47337 |*************************************                         0.020
  549.46262 |**********************                                        0.012
  560.45187 |***************                                               0.008
  571.44113 |******************************                                0.016
  582.43038 |******************************                                0.016
  593.41963 |******************************                                0.016
  604.40888 |***************                                               0.008
  615.39814 |******************************                                0.016
  626.38739 |***************                                               0.008
  637.37664 |**********************                                        0.012
  648.36589 |***************                                               0.008
  659.35515 |***************                                               0.008
  670.34440 |**********************                                        0.012
  681.33365 |***************                                               0.008
  692.32290 |***************                                               0.008
--------------------------------------------------------------------------------



  Time to end of optimisation =       4.5226 seconds


  Peak dynamic memory used =       3.11 MB 


  Timing analysis for GULP :

--------------------------------------------------------------------------------
  Task / Subroutine                                          Time (Seconds)
--------------------------------------------------------------------------------
  Calculation of reciprocal space energy and derivatives          0.3214
  Calculation of real space energy and derivatives                3.9322
  Calculation of phonons                                          0.1892
  Calculation and manipulation of Hessian matrix                  0.0040
  Calculation of matrix diagonalisation                           0.0111
  Calculation of matrix inversion                                 0.0990
  Global summation overhead                                       0.0449
--------------------------------------------------------------------------------
  Total CPU time                                                  4.5226
--------------------------------------------------------------------------------


  Dump file written as gulp.res
  CIF file written as cryst.cif


  Job Finished at 16:53.55 21st November   2023                               

