********************************************************************************
*                       GENERAL UTILITY LATTICE PROGRAM                        *
*                                 Julian Gale                                  *
*                       Curtin Institute for Computation                       *
*                    School of Molecular and Life Sciences                     *
*                    Curtin University, Western Australia                      *
********************************************************************************
* Version = 6.1.2 * Last modified =   3rd November 2022                        *
********************************************************************************
*  optimise     - perform optimisation run                                     *
*  conp         - constant pressure calculation                                *
*  property     - calculate properties for final geometry                      *
*  phonon       - calculate phonons for final geometry                         *
*  nosymmetry   - turn off symmetry after initial structure generation         *
*  full         - generate full unit cell when symmetry is removed             *
********************************************************************************

  Job Started  at 19:04.26  8th September  2023                               

  Number of CPUs =     2

  Host name      = nid004766                               


  Total number of configurations input =      1

********************************************************************************
*  Input for Configuration =   1                                               *
********************************************************************************

  Formula = Tc4Mn20Li4O48                                               

  Number of irreducible atoms/shells =     128


  Total number atoms/shells =     128

  Dimensionality = 3               :  Bulk   



  Cartesian lattice vectors (Angstroms) :

        8.872874    0.000000    0.000000
        0.000000    9.432501    0.000000
        0.000000    0.000000    8.565761

  Cell parameters (Angstroms/Degrees):

  a =       8.8729    alpha =  90.0000
  b =       9.4325    beta  =  90.0000
  c =       8.5658    gamma =  90.0000

  Initial cell volume =         716.897611 Angs**3

  Temperature of configuration =   0.00     K 

  Pressure of configuration =         0.000 GPa 

  Fractional coordinates of asymmetric unit :

--------------------------------------------------------------------------------
   No.  Atomic       x           y          z         Charge      Occupancy
        Label      (Frac)      (Frac)     (Frac)        (e)         (Frac)  
--------------------------------------------------------------------------------
      1 Tc    c    0.629638 *  0.228378 *  0.416282 *   1.97100    1.000000    
      2 Tc    c    0.341752 *  0.241656 *  0.576011 *   1.97100    1.000000    
      3 Tc    c    0.841209 *  0.974273 *  0.254966 *   1.97100    1.000000    
      4 Tc    c    0.845566 *  0.017363 *  0.578245 *   1.97100    1.000000    
      5 Mn    c    0.631145 *  0.237819 *  0.076672 *   4.00000    1.000000    
      6 Mn    c    0.118503 *  0.515480 *  0.084353 *   4.00000    1.000000    
      7 Mn    c    0.356886 *  0.204119 *  0.241572 *   4.00000    1.000000    
      8 Mn    c    0.128801 *  0.010625 *  0.753086 *   4.00000    1.000000    
      9 Mn    c    0.339300 *  0.251960 *  0.918336 *   4.00000    1.000000    
     10 Mn    c    0.616473 *  0.729346 *  0.417919 *   4.00000    1.000000    
     11 Mn    c    0.114644 *  0.508918 *  0.413079 *   4.00000    1.000000    
     12 Mn    c    0.128093 *  0.998805 *  0.414147 *   4.00000    1.000000    
     13 Mn    c    0.620036 *  0.735381 *  0.080636 *   4.00000    1.000000    
     14 Mn    c    0.834163 *  0.484687 *  0.584942 *   4.00000    1.000000    
     15 Mn    c    0.836201 *  0.492453 *  0.913558 *   4.00000    1.000000    
     16 Mn    c    0.844615 *  0.994073 *  0.915134 *   4.00000    1.000000    
     17 Mn    c    0.118528 *  0.501573 *  0.749585 *   4.00000    1.000000    
     18 Mn    c    0.834081 *  0.495366 *  0.247362 *   4.00000    1.000000    
     19 Mn    c    0.623152 *  0.237950 *  0.752653 *   4.00000    1.000000    
     20 Mn    c    0.340330 *  0.755500 *  0.914327 *   4.00000    1.000000    
     21 Mn    c    0.337750 *  0.753983 *  0.582734 *   4.00000    1.000000    
     22 Mn    c    0.337987 *  0.753137 *  0.248536 *   4.00000    1.000000    
     23 Mn    c    0.123005 *  0.986432 *  0.080156 *   4.00000    1.000000    
     24 Mn    c    0.623813 *  0.748365 *  0.747798 *   4.00000    1.000000    
     25 Li    c    0.448922 *  0.468387 *  0.253620 *   1.00000    1.000000    
     26 Li    c    0.971544 *  0.229671 *  0.116002 *   1.00000    1.000000    
     27 Li    c    0.975356 *  0.770397 *  0.588183 *   1.00000    1.000000    
     28 Li    c    0.472765 *  0.506484 *  0.734845 *   1.00000    1.000000    
     29 O     c    0.041577 *  0.089960 *  0.245895 *   0.51300    1.000000    
     30 O     c    0.430002 *  0.335538 *  0.090977 *   0.51300    1.000000    
     31 O     c    0.548702 *  0.122621 *  0.232310 *   0.51300    1.000000    
     32 O     c    0.936037 *  0.406934 *  0.080126 *   0.51300    1.000000    
     33 O     c    0.245949 *  0.145094 *  0.074925 *   0.51300    1.000000    
     34 O     c    0.207730 *  0.415858 *  0.247283 *   0.51300    1.000000    
     35 O     c    0.778788 *  0.107132 *  0.073159 *   0.51300    1.000000    
     36 O     c    0.700961 *  0.353358 *  0.230581 *   0.51300    1.000000    
     37 O     c    0.010928 *  0.609196 *  0.249785 *   0.51300    1.000000    
     38 O     c    0.439019 *  0.844781 *  0.082392 *   0.51300    1.000000    
     39 O     c    0.517329 *  0.640307 *  0.246902 *   0.51300    1.000000    
     40 O     c    0.937017 *  0.886907 *  0.072134 *   0.51300    1.000000    
     41 O     c    0.259222 *  0.653025 *  0.079381 *   0.51300    1.000000    
     42 O     c    0.203304 *  0.891066 *  0.244876 *   0.51300    1.000000    
     43 O     c    0.753694 *  0.592730 *  0.077613 *   0.51300    1.000000    
     44 O     c    0.705117 *  0.817935 *  0.251443 *   0.51300    1.000000    
     45 O     c    0.062363 *  0.111909 *  0.580065 *   0.51300    1.000000    
     46 O     c    0.421559 *  0.329686 *  0.395106 *   0.51300    1.000000    
     47 O     c    0.534601 *  0.141857 *  0.589142 *   0.51300    1.000000    
     48 O     c    0.929846 *  0.397031 *  0.413841 *   0.51300    1.000000    
     49 O     c    0.288004 *  0.109716 *  0.405271 *   0.51300    1.000000    
     50 O     c    0.207402 *  0.417645 *  0.578965 *   0.51300    1.000000    
     51 O     c    0.778145 *  0.103549 *  0.403330 *   0.51300    1.000000    
     52 O     c    0.694487 *  0.351790 *  0.599037 *   0.51300    1.000000    
     53 O     c    0.014524 *  0.595169 *  0.583421 *   0.51300    1.000000    
     54 O     c    0.438021 *  0.843707 *  0.415563 *   0.51300    1.000000    
     55 O     c    0.517852 *  0.641241 *  0.587392 *   0.51300    1.000000    
     56 O     c    0.952095 *  0.892661 *  0.426131 *   0.51300    1.000000    
     57 O     c    0.248548 *  0.656997 *  0.415702 *   0.51300    1.000000    
     58 O     c    0.197255 *  0.890752 *  0.588524 *   0.51300    1.000000    
     59 O     c    0.737116 *  0.575257 *  0.417627 *   0.51300    1.000000    
     60 O     c    0.716659 *  0.826357 *  0.575603 *   0.51300    1.000000    
     61 O     c    0.034283 *  0.100034 *  0.922239 *   0.51300    1.000000    
     62 O     c    0.434556 *  0.339818 *  0.753887 *   0.51300    1.000000    
     63 O     c    0.524941 *  0.146530 *  0.917785 *   0.51300    1.000000    
     64 O     c    0.935618 *  0.395461 *  0.751032 *   0.51300    1.000000    
     65 O     c    0.266321 *  0.144872 *  0.765268 *   0.51300    1.000000    
     66 O     c    0.207091 *  0.405842 *  0.917930 *   0.51300    1.000000    
     67 O     c    0.759813 *  0.100052 *  0.764249 *   0.51300    1.000000    
     68 O     c    0.698693 *  0.352291 *  0.914394 *   0.51300    1.000000    
     69 O     c    0.023022 *  0.601597 *  0.913282 *   0.51300    1.000000    
     70 O     c    0.435521 *  0.850138 *  0.747700 *   0.51300    1.000000    
     71 O     c    0.525915 *  0.645652 *  0.910787 *   0.51300    1.000000    
     72 O     c    0.945249 *  0.907024 *  0.750569 *   0.51300    1.000000    
     73 O     c    0.259296 *  0.646552 *  0.750469 *   0.51300    1.000000    
     74 O     c    0.204849 *  0.894412 *  0.912244 *   0.51300    1.000000    
     75 O     c    0.752352 *  0.595047 *  0.749393 *   0.51300    1.000000    
     76 O     c    0.705902    0.844041    0.916685     0.51300    1.000000    
     77 Tc    s    0.630647 *  0.232586 *  0.414850 *   1.02900    1.000000    
     78 Tc    s    0.337302 *  0.241466 *  0.576713 *   1.02900    1.000000    
     79 Tc    s    0.838412 *  0.973958 *  0.253500 *   1.02900    1.000000    
     80 Tc    s    0.843919 *  0.016857 *  0.580733 *   1.02900    1.000000    
     81 O     s    0.049650 *  0.067046 *  0.242436 *  -2.51300    1.000000    
     82 O     s    0.426079 *  0.310145 *  0.089529 *  -2.51300    1.000000    
     83 O     s    0.540613 *  0.153254 *  0.227186 *  -2.51300    1.000000    
     84 O     s    0.933241 *  0.427081 *  0.080710 *  -2.51300    1.000000    
     85 O     s    0.256890 *  0.146087 *  0.081212 *  -2.51300    1.000000    
     86 O     s    0.190570 *  0.434060 *  0.246574 *  -2.51300    1.000000    
     87 O     s    0.771997 *  0.106256 *  0.063097 *  -2.51300    1.000000    
     88 O     s    0.707151 *  0.353173 *  0.222951 *  -2.51300    1.000000    
     89 O     s    0.012884 *  0.578117 *  0.249540 *  -2.51300    1.000000    
     90 O     s    0.435061 *  0.812585 *  0.081564 *  -2.51300    1.000000    
     91 O     s    0.516148 *  0.659923 *  0.248515 *  -2.51300    1.000000    
     92 O     s    0.937730 *  0.917299 *  0.069374 *  -2.51300    1.000000    
     93 O     s    0.256720 *  0.655914 *  0.080080 *  -2.51300    1.000000    
     94 O     s    0.208605 *  0.891273 *  0.240710 *  -2.51300    1.000000    
     95 O     s    0.752353 *  0.590663 *  0.077425 *  -2.51300    1.000000    
     96 O     s    0.694670 *  0.810454 *  0.250152 *  -2.51300    1.000000    
     97 O     s    0.069567 *  0.082612 *  0.581749 *  -2.51300    1.000000    
     98 O     s    0.418554 *  0.308006 *  0.388728 *  -2.51300    1.000000    
     99 O     s    0.541013 *  0.169491 *  0.593268 *  -2.51300    1.000000    
    100 O     s    0.924775 *  0.427032 *  0.415005 *  -2.51300    1.000000    
    101 O     s    0.275076 *  0.115584 *  0.392480 *  -2.51300    1.000000    
    102 O     s    0.193343 *  0.427956 *  0.581276 *  -2.51300    1.000000    
    103 O     s    0.772933 *  0.096525 *  0.410333 *  -2.51300    1.000000    
    104 O     s    0.704936 *  0.352456 *  0.606435 *  -2.51300    1.000000    
    105 O     s    0.015053 *  0.577390 *  0.582185 *  -2.51300    1.000000    
    106 O     s    0.432948 *  0.811142 *  0.415825 *  -2.51300    1.000000    
    107 O     s    0.518293 *  0.665223 *  0.588189 *  -2.51300    1.000000    
    108 O     s    0.957681 *  0.915091 *  0.427188 *  -2.51300    1.000000    
    109 O     s    0.250839 *  0.659007 *  0.415184 *  -2.51300    1.000000    
    110 O     s    0.204576 *  0.889952 *  0.587338 *  -2.51300    1.000000    
    111 O     s    0.741690 *  0.578640 *  0.415662 *  -2.51300    1.000000    
    112 O     s    0.700319 *  0.813501 *  0.579357 *  -2.51300    1.000000    
    113 O     s    0.037264 *  0.071081 *  0.922550 *  -2.51300    1.000000    
    114 O     s    0.434728 *  0.325891 *  0.760101 *  -2.51300    1.000000    
    115 O     s    0.531059 *  0.178926 *  0.917988 *  -2.51300    1.000000    
    116 O     s    0.932524 *  0.428118 *  0.750582 *  -2.51300    1.000000    
    117 O     s    0.259447 *  0.146186 *  0.772931 *  -2.51300    1.000000    
    118 O     s    0.204789 *  0.408300 *  0.914665 *  -2.51300    1.000000    
    119 O     s    0.758551 *  0.098781 *  0.767603 *  -2.51300    1.000000    
    120 O     s    0.703685 *  0.347984 *  0.915556 *  -2.51300    1.000000    
    121 O     s    0.028422 *  0.570533 *  0.914792 *  -2.51300    1.000000    
    122 O     s    0.432152 *  0.817816 *  0.748360 *  -2.51300    1.000000    
    123 O     s    0.528702 *  0.672977 *  0.910123 *  -2.51300    1.000000    
    124 O     s    0.945647 *  0.931179 *  0.753532 *  -2.51300    1.000000    
    125 O     s    0.260184 *  0.650553 *  0.750432 *  -2.51300    1.000000    
    126 O     s    0.208288 *  0.896682 *  0.916764 *  -2.51300    1.000000    
    127 O     s    0.753309 *  0.591410 *  0.751238 *  -2.51300    1.000000    
    128 O     s    0.702949 *  0.838528 *  0.913125 *  -2.51300    1.000000    
--------------------------------------------------------------------------------


  Brillouin zone sampling points :

--------------------------------------------------------------------------------
  Point number          x          y          z            Weight
--------------------------------------------------------------------------------
        1           0.000000   0.000000   0.000000     1.00000000
--------------------------------------------------------------------------------


********************************************************************************
*  General input information                                                   *
********************************************************************************

  Species output for all configurations : 

--------------------------------------------------------------------------------
  Species    Type    Atomic    Atomic    Charge       Radii (Angs)     Library
                     Number     Mass       (e)     Cova   Ionic  VDW   Symbol
--------------------------------------------------------------------------------
    Tc       Core       43      98.00   1.971000   1.350  0.000  2.010          
    Tc       Shell      43       0.00   1.029000   1.350  0.000  2.010          
    Mn       Core       25      54.94   4.000000   1.350  0.000  2.010          
    O        Core        8      16.00   0.513000   0.730  0.000  1.360          
    O        Shell       8       0.00  -2.513000   0.730  0.000  1.360          
    Li       Core        3       6.94   1.000000   0.680  0.000  1.800          
--------------------------------------------------------------------------------


  Lattice summation method               =    Ewald          (3-D)
                                         =    Parry          (2-D)
                                         =    Saunders et al (1-D)
  Accuracy factor for lattice sums       =   10.000


  Analytic derivatives to be used

  Time limit = Infinity

  Maximum range for interatomic potentials =    100000.000000 Angstroms

  General interatomic potentials :

--------------------------------------------------------------------------------
Atom  Types   Potential      Parameter       Value         Units   Cutoffs(Ang)
  1     2                                                            Min /  Max 
--------------------------------------------------------------------------------
Mn   c O    s Buckingham    Buckingham A     3087.8260    eV        0.000 25.000
                            Buckingham rho  0.26420000    Ang       
                            Buckingham C     0.0000000    eV*Ang^6  
--------------------------------------------------------------------------------
Li   c O    s Buckingham    Buckingham A     479.83700    eV        0.000 25.000
                            Buckingham rho  0.30000000    Ang       
                            Buckingham C     0.0000000    eV*Ang^6  
--------------------------------------------------------------------------------
O    s Tc   s Buckingham    Buckingham A     1686.1250    eV        0.000 25.000
                            Buckingham rho  0.29620000    Ang       
                            Buckingham C     0.0000000    eV*Ang^6  
--------------------------------------------------------------------------------
O    s O    s Buckingham    Buckingham A     22.410000    eV        0.000 25.000
                            Buckingham rho  0.69370000    Ang       
                            Buckingham C     32.320000    eV*Ang^6  
--------------------------------------------------------------------------------
O    s O    s Lennard       Lennard-Jones A  100.00000    eV*Ang^m  0.000 25.000
                            Lennard-Jones B  0.0000000    eV*Ang^n  
                            Exponent m        16          None
                            Exponent n         6          None
--------------------------------------------------------------------------------
O    c O    s Spring (c-s)  Spring k 2       20.530000    eV*Ang^-2 0.000  0.800
                            Spring k 4       0.0000000    eV*Ang^-4 
--------------------------------------------------------------------------------
Tc   c Tc   s Spring (c-s)  Spring k 2       148.00000    eV*Ang^-2 0.000  0.800
                            Spring k 4       0.0000000    eV*Ang^-4 
--------------------------------------------------------------------------------

********************************************************************************
*  Output for configuration   1                                                *
********************************************************************************


  Components of energy : 

--------------------------------------------------------------------------------
  Interatomic potentials     =         638.72494391 eV    
  Monopole - monopole (real) =       -1961.90596520 eV    
  Monopole - monopole (recip)=       -1589.67425894 eV    
  Monopole - monopole (total)=       -3551.58022414 eV    
--------------------------------------------------------------------------------
  Total lattice energy       =       -2912.85528023 eV    
--------------------------------------------------------------------------------
  Total lattice energy       =         -281046.0075 kJ/(mole unit cells)
--------------------------------------------------------------------------------


  Number of variables =      387

  Maximum number of calculations  =           300
  Maximum Hessian update interval =            10
  Maximum step size               =   1.000000000
  Maximum parameter tolerance     =   0.000000010
  Maximum function  tolerance     =   0.000000010
  Maximum gradient  tolerance     =   0.000000010
  Maximum gradient  component     =   0.010000000

  Cell parameters to be optimised using strains

  Newton-Raphson optimiser to be used

  BFGS hessian update to be used

  General 2-D hessian to be used

  Dumpfile to be written after every   10 cycles

  Start of bulk optimisation :

  Cycle:      0 Energy:     -2912.855280  Gnorm:      0.306148  CPU:    0.226
  ** Hessian calculated **
  Cycle:      1 Energy:     -2915.242833  Gnorm:      0.106781  CPU:    0.384
  Cycle:      2 Energy:     -2915.571767  Gnorm:      0.042194  CPU:    0.518
  Cycle:      3 Energy:     -2915.834638  Gnorm:      0.084582  CPU:    0.652
  Cycle:      4 Energy:     -2916.151310  Gnorm:      0.149814  CPU:    0.784
  Cycle:      5 Energy:     -2916.683234  Gnorm:      0.210449  CPU:    0.915
  Cycle:      6 Energy:     -2917.272716  Gnorm:      0.258372  CPU:    1.021
  Cycle:      7 Energy:     -2917.973248  Gnorm:      0.206544  CPU:    1.150
  Cycle:      8 Energy:     -2918.650187  Gnorm:      0.163794  CPU:    1.280
  Cycle:      9 Energy:     -2919.277641  Gnorm:      0.156509  CPU:    1.408
  Cycle:     10 Energy:     -2919.781743  Gnorm:      0.150155  CPU:    1.513
  ** Hessian calculated **
  Cycle:     11 Energy:     -2919.976027  Gnorm:      0.082147  CPU:    1.831
  Cycle:     12 Energy:     -2920.063582  Gnorm:      0.081076  CPU:    1.960
  Cycle:     13 Energy:     -2920.128206  Gnorm:      0.063951  CPU:    2.088
  Cycle:     14 Energy:     -2920.176715  Gnorm:      0.055082  CPU:    2.193
  Cycle:     15 Energy:     -2920.218352  Gnorm:      0.048460  CPU:    2.321
  Cycle:     16 Energy:     -2920.265264  Gnorm:      0.054404  CPU:    2.449
  Cycle:     17 Energy:     -2920.310150  Gnorm:      0.049288  CPU:    2.896
  Cycle:     18 Energy:     -2920.350316  Gnorm:      0.049630  CPU:    3.024
  Cycle:     19 Energy:     -2920.382660  Gnorm:      0.048654  CPU:    3.128
  Cycle:     20 Energy:     -2920.414869  Gnorm:      0.050471  CPU:    3.233
  ** Hessian calculated **
  Cycle:     21 Energy:     -2920.432573  Gnorm:      0.038794  CPU:    4.110
  Cycle:     22 Energy:     -2920.452454  Gnorm:      0.042618  CPU:    4.238
  Cycle:     23 Energy:     -2920.477745  Gnorm:      0.041583  CPU:    4.366
  Cycle:     24 Energy:     -2920.507651  Gnorm:      0.047294  CPU:    4.494
  Cycle:     25 Energy:     -2920.539323  Gnorm:      0.042475  CPU:    4.622
  Cycle:     26 Energy:     -2920.567935  Gnorm:      0.047288  CPU:    4.750
  Cycle:     27 Energy:     -2920.603452  Gnorm:      0.050966  CPU:    4.878
  Cycle:     28 Energy:     -2920.653428  Gnorm:      0.066260  CPU:    5.006
  Cycle:     29 Energy:     -2920.708455  Gnorm:      0.068365  CPU:    5.134
  Cycle:     30 Energy:     -2920.772329  Gnorm:      0.085730  CPU:    5.261
  ** Hessian calculated **
  Cycle:     31 Energy:     -2920.816412  Gnorm:      0.060034  CPU:    5.941
  Cycle:     32 Energy:     -2920.856250  Gnorm:      0.056239  CPU:    6.068
  Cycle:     33 Energy:     -2920.889081  Gnorm:      0.041731  CPU:    6.196
  Cycle:     34 Energy:     -2920.915281  Gnorm:      0.045427  CPU:    6.324
  Cycle:     35 Energy:     -2920.942646  Gnorm:      0.047278  CPU:    6.451
  Cycle:     36 Energy:     -2920.977987  Gnorm:      0.052342  CPU:    6.579
  Cycle:     37 Energy:     -2921.012796  Gnorm:      0.044907  CPU:    6.706
  Cycle:     38 Energy:     -2921.045048  Gnorm:      0.049013  CPU:    6.810
  Cycle:     39 Energy:     -2921.069736  Gnorm:      0.043398  CPU:    6.914
  Cycle:     40 Energy:     -2921.093602  Gnorm:      0.046964  CPU:    7.041
  ** Hessian calculated **
  Cycle:     41 Energy:     -2921.290930  Gnorm:      0.040880  CPU:    7.435
  Cycle:     42 Energy:     -2921.495103  Gnorm:      0.033209  CPU:    7.586
  Cycle:     43 Energy:     -2921.676727  Gnorm:      0.024637  CPU:    7.736
  Cycle:     44 Energy:     -2921.753626  Gnorm:      0.015811  CPU:    7.862
  Cycle:     45 Energy:     -2921.756595  Gnorm:      0.012063  CPU:    7.966
  Cycle:     46 Energy:     -2921.759480  Gnorm:      0.005195  CPU:    8.068
  Cycle:     47 Energy:     -2921.759974  Gnorm:      0.002200  CPU:    8.171
  Cycle:     48 Energy:     -2921.760146  Gnorm:      0.001863  CPU:    8.275
  Cycle:     49 Energy:     -2921.760329  Gnorm:      0.001491  CPU:    8.401
  Cycle:     50 Energy:     -2921.760489  Gnorm:      0.001495  CPU:    8.528
  ** Hessian calculated **
  Cycle:     51 Energy:     -2921.761408  Gnorm:      0.002217  CPU:    8.910
  Cycle:     52 Energy:     -2921.761560  Gnorm:      0.003400  CPU:    9.036
  Cycle:     53 Energy:     -2921.762207  Gnorm:      0.004222  CPU:    9.163
  Cycle:     54 Energy:     -2921.762683  Gnorm:      0.002593  CPU:    9.266
  Cycle:     55 Energy:     -2921.763167  Gnorm:      0.001472  CPU:    9.393
  Cycle:     56 Energy:     -2921.763192  Gnorm:      0.000391  CPU:    9.495
  Cycle:     57 Energy:     -2921.763198  Gnorm:      0.000060  CPU:    9.598
  Cycle:     58 Energy:     -2921.763198  Gnorm:      0.000014  CPU:    9.702
  Cycle:     59 Energy:     -2921.763198  Gnorm:      0.000001  CPU:    9.805
  Cycle:     60 Energy:     -2921.763198  Gnorm:      0.000001  CPU:    9.948
  ** Hessian calculated **
  Cycle:     61 Energy:     -2921.763198  Gnorm:      0.000000  CPU:   10.495
  Cycle:     62 Energy:     -2921.763198  Gnorm:      0.000000  CPU:   10.669
  ** Hessian calculated **
  Cycle:     63 Energy:     -2921.763198  Gnorm:      0.000001  CPU:   11.102
  Cycle:     64 Energy:     -2921.763198  Gnorm:      0.000000  CPU:   11.275
  Cycle:     65 Energy:     -2921.763198  Gnorm:      0.000000  CPU:   11.378
  Cycle:     66 Energy:     -2921.763198  Gnorm:      0.000000  CPU:   11.552
  Cycle:     67 Energy:     -2921.763198  Gnorm:      0.000000  CPU:   11.655
  Cycle:     68 Energy:     -2921.763198  Gnorm:      0.000000  CPU:   11.828
  ** Hessian calculated **
  Cycle:     69 Energy:     -2921.763198  Gnorm:      0.000000  CPU:   12.125
  Cycle:     70 Energy:     -2921.763198  Gnorm:      0.000000  CPU:   12.228
  Cycle:     71 Energy:     -2921.763198  Gnorm:      0.000000  CPU:   13.264
  Cycle:     72 Energy:     -2921.763198  Gnorm:      0.000000  CPU:   13.437
  ** Hessian calculated **


  **** Too many failed attempts to optimise ****

  Final energy =   -2921.76319764 eV      
  Final Gnorm  =       0.00000036

  Components of energy : 

--------------------------------------------------------------------------------
  Interatomic potentials     =         608.74681060 eV    
  Monopole - monopole (real) =       -2050.27245671 eV    
  Monopole - monopole (recip)=       -1480.23755153 eV    
  Monopole - monopole (total)=       -3530.51000825 eV    
--------------------------------------------------------------------------------
  Total lattice energy       =       -2921.76319764 eV    
--------------------------------------------------------------------------------
  Total lattice energy       =         -281905.4853 kJ/(mole unit cells)
--------------------------------------------------------------------------------

  Final fractional coordinates of atoms :

--------------------------------------------------------------------------------
   No.  Atomic        x           y          z          Radius
        Label       (Frac)      (Frac)     (Frac)       (Angs) 
--------------------------------------------------------------------------------
     1  Tc    c     0.717584    0.345205    0.421269    0.000000
     2  Tc    c     0.443160    0.263812    0.579693    0.000000
     3  Tc    c     0.958235    0.151181    0.258414    0.000000
     4  Tc    c     0.968949    0.182275    0.582090    0.000000
     5  Mn    c     0.731710    0.345353    0.081932    0.000000
     6  Mn    c     0.099944    0.656578    0.084300    0.000000
     7  Mn    c     0.447869    0.253229    0.245000    0.000000
     8  Mn    c     0.220750    0.088862    0.753324    0.000000
     9  Mn    c     0.448708    0.256226    0.924245    0.000000
    10  Mn    c     0.598749    0.779836    0.418683    0.000000
    11  Mn    c     0.096044    0.655039    0.420033    0.000000
    12  Mn    c     0.221444    0.083948    0.417109    0.000000
    13  Mn    c     0.602061    0.781887    0.084225    0.000000
    14  Mn    c     0.829177    0.591271    0.588150    0.000000
    15  Mn    c     0.834261    0.602153    0.918390    0.000000
    16  Mn    c     0.973228    0.182803    0.918748    0.000000
    17  Mn    c     0.099874    0.652114    0.752497    0.000000
    18  Mn    c     0.830074    0.600556    0.250377    0.000000
    19  Mn    c     0.699131    0.347394    0.757461    0.000000
    20  Mn    c     0.333529    0.833990    0.918232    0.000000
    21  Mn    c     0.334062    0.834960    0.585990    0.000000
    22  Mn    c     0.333098    0.837711    0.251850    0.000000
    23  Mn    c     0.216463    0.085271    0.084074    0.000000
    24  Mn    c     0.601300    0.781468    0.750972    0.000000
    25  Li    c     0.394068    0.558766    0.304425    0.000000
    26  Li    c     0.072688    0.434796    0.249640    0.000000
    27  Li    c     0.893397    0.863125    0.577254    0.000000
    28  Li    c     0.395131    0.562418    0.885532    0.000000
    29  O     c     0.172121    0.188758    0.250139    0.000000
    30  O     c     0.423191    0.364607    0.085296    0.000000
    31  O     c     0.650407    0.245794    0.230917    0.000000
    32  O     c     0.946993    0.537913    0.084395    0.000000
    33  O     c     0.408054    0.144167    0.082711    0.000000
    34  O     c     0.193804    0.576253    0.253005    0.000000
    35  O     c     0.904625    0.269349    0.081685    0.000000
    36  O     c     0.752229    0.450400    0.238022    0.000000
    37  O     c     0.981284    0.719583    0.252546    0.000000
    38  O     c     0.446619    0.896184    0.083451    0.000000
    39  O     c     0.476384    0.713010    0.252917    0.000000
    40  O     c     0.002269    0.064808    0.067989    0.000000
    41  O     c     0.211032    0.790541    0.087217    0.000000
    42  O     c     0.233796    0.978601    0.248855    0.000000
    43  O     c     0.707663    0.640157    0.083219    0.000000
    44  O     c     0.706909    0.839900    0.252505    0.000000
    45  O     c     0.195643    0.195597    0.582618    0.000000
    46  O     c     0.458463    0.366033    0.401353    0.000000
    47  O     c     0.654659    0.245821    0.592967    0.000000
    48  O     c     0.942111    0.533295    0.417818    0.000000
    49  O     c     0.407428    0.146449    0.400478    0.000000
    50  O     c     0.202268    0.588803    0.584038    0.000000
    51  O     c     0.894845    0.265293    0.406363    0.000000
    52  O     c     0.737919    0.451042    0.600566    0.000000
    53  O     c     0.973682    0.716070    0.583832    0.000000
    54  O     c     0.445249    0.898242    0.418458    0.000000
    55  O     c     0.481753    0.713967    0.586146    0.000000
    56  O     c     0.014046    0.058473    0.434735    0.000000
    57  O     c     0.210802    0.789319    0.417772    0.000000
    58  O     c     0.245894    0.983214    0.588504    0.000000
    59  O     c     0.706279    0.636373    0.419629    0.000000
    60  O     c     0.703308    0.847050    0.582557    0.000000
    61  O     c     0.179201    0.202102    0.922240    0.000000
    62  O     c     0.483608    0.369050    0.766881    0.000000
    63  O     c     0.653342    0.244055    0.931470    0.000000
    64  O     c     0.947210    0.536100    0.754277    0.000000
    65  O     c     0.400412    0.157487    0.767500    0.000000
    66  O     c     0.205176    0.588315    0.920376    0.000000
    67  O     c     0.879021    0.266555    0.768841    0.000000
    68  O     c     0.736708    0.451459    0.919432    0.000000
    69  O     c     0.982700    0.721370    0.917870    0.000000
    70  O     c     0.446088    0.897183    0.752500    0.000000
    71  O     c     0.478983    0.712500    0.918703    0.000000
    72  O     c     0.011221    0.077116    0.756547    0.000000
    73  O     c     0.208207    0.791941    0.751796    0.000000
    74  O     c     0.241135    0.983320    0.918038    0.000000
    75  O     c     0.708540    0.641684    0.753659    0.000000
    76  O     c     0.705902    0.844041    0.916685    0.000000
    77  Tc    s     0.716387    0.347115    0.419596    0.000000
    78  Tc    s     0.439505    0.262673    0.581297    0.000000
    79  Tc    s     0.953330    0.151362    0.256463    0.000000
    80  Tc    s     0.967001    0.184122    0.583808    0.000000
    81  O     s     0.170332    0.167529    0.248884    0.000000
    82  O     s     0.430234    0.339272    0.084129    0.000000
    83  O     s     0.640033    0.264155    0.224853    0.000000
    84  O     s     0.938927    0.558969    0.086184    0.000000
    85  O     s     0.393479    0.161846    0.082668    0.000000
    86  O     s     0.177898    0.587765    0.254531    0.000000
    87  O     s     0.891650    0.262843    0.069777    0.000000
    88  O     s     0.756185    0.445394    0.230737    0.000000
    89  O     s     0.989955    0.695294    0.253836    0.000000
    90  O     s     0.434604    0.871373    0.084191    0.000000
    91  O     s     0.479970    0.729554    0.255612    0.000000
    92  O     s     0.011484    0.089193    0.068548    0.000000
    93  O     s     0.224529    0.782146    0.086992    0.000000
    94  O     s     0.243923    0.985204    0.248417    0.000000
    95  O     s     0.725177    0.646967    0.083590    0.000000
    96  O     s     0.679272    0.823887    0.252943    0.000000
    97  O     s     0.193697    0.176296    0.583773    0.000000
    98  O     s     0.460372    0.344871    0.397498    0.000000
    99  O     s     0.649532    0.266869    0.596915    0.000000
   100  O     s     0.932792    0.553255    0.416622    0.000000
   101  O     s     0.390875    0.159633    0.392544    0.000000
   102  O     s     0.177075    0.604943    0.584379    0.000000
   103  O     s     0.890135    0.255864    0.410236    0.000000
   104  O     s     0.744623    0.449189    0.606025    0.000000
   105  O     s     0.978925    0.700568    0.580900    0.000000
   106  O     s     0.432498    0.873808    0.418164    0.000000
   107  O     s     0.489662    0.737214    0.584987    0.000000
   108  O     s     0.023528    0.078328    0.429439    0.000000
   109  O     s     0.223368    0.782593    0.417169    0.000000
   110  O     s     0.250577    0.989612    0.587576    0.000000
   111  O     s     0.722526    0.642028    0.417936    0.000000
   112  O     s     0.688589    0.831511    0.582683    0.000000
   113  O     s     0.165802    0.182559    0.923129    0.000000
   114  O     s     0.492196    0.349429    0.773119    0.000000
   115  O     s     0.642486    0.266844    0.932016    0.000000
   116  O     s     0.936633    0.560921    0.753789    0.000000
   117  O     s     0.384690    0.169441    0.776385    0.000000
   118  O     s     0.189712    0.602850    0.918971    0.000000
   119  O     s     0.878659    0.258361    0.776312    0.000000
   120  O     s     0.741154    0.439568    0.921198    0.000000
   121  O     s     0.990373    0.696149    0.918380    0.000000
   122  O     s     0.434071    0.872431    0.752800    0.000000
   123  O     s     0.481388    0.729184    0.917376    0.000000
   124  O     s     0.023093    0.099451    0.760447    0.000000
   125  O     s     0.223734    0.784950    0.751310    0.000000
   126  O     s     0.246185    0.993125    0.918913    0.000000
   127  O     s     0.724383    0.647844    0.754094    0.000000
   128  O     s     0.678466    0.826998    0.916451    0.000000
--------------------------------------------------------------------------------

  Final Cartesian lattice vectors (Angstroms) :

        9.131427   -0.018552    0.014816
       -0.004500   11.407623    0.020562
        0.014247    0.016273    8.517405


  Final cell parameters and derivatives :

--------------------------------------------------------------------------------
       a            9.131457 Angstrom     dE/de1(xx)    -0.000011 eV/strain
       b           11.407642 Angstrom     dE/de2(yy)    -0.000013 eV/strain
       c            8.517433 Angstrom     dE/de3(zz)    -0.000001 eV/strain
       alpha       89.787298 Degrees      dE/de4(yz)     0.000003 eV/strain
       beta        89.811418 Degrees      dE/de5(xz)    -0.000003 eV/strain
       gamma       90.138838 Degrees      dE/de6(xy)    -0.000002 eV/strain
--------------------------------------------------------------------------------

  Primitive cell volume =           887.233787 Angs**3

  Density of cell =      4.279574 g/cm**3

  Non-primitive cell volume =           887.233787 Angs**3


  Final internal derivatives :

--------------------------------------------------------------------------------
   No.  Atomic          a             b             c           Radius
        Label          (eV)          (eV)          (eV)        (eV/Angs)
--------------------------------------------------------------------------------
      1 Tc    c       0.000013      0.000005     -0.000007      0.000000
      2 Tc    c      -0.000012      0.000001     -0.000015      0.000000
      3 Tc    c      -0.000002      0.000001     -0.000001      0.000000
      4 Tc    c       0.000005      0.000001      0.000000      0.000000
      5 Mn    c      -0.000010     -0.000012      0.000011      0.000000
      6 Mn    c       0.000002      0.000002      0.000008      0.000000
      7 Mn    c       0.000002      0.000014     -0.000005      0.000000
      8 Mn    c       0.000001      0.000000      0.000001      0.000000
      9 Mn    c      -0.000004     -0.000005      0.000006      0.000000
     10 Mn    c      -0.000014     -0.000006     -0.000000      0.000000
     11 Mn    c       0.000012      0.000015     -0.000015      0.000000
     12 Mn    c       0.000004      0.000003     -0.000004      0.000000
     13 Mn    c       0.000003      0.000017      0.000003      0.000000
     14 Mn    c       0.000001      0.000003      0.000000      0.000000
     15 Mn    c       0.000010      0.000013     -0.000000      0.000000
     16 Mn    c       0.000003     -0.000003      0.000001      0.000000
     17 Mn    c      -0.000005      0.000005      0.000005      0.000000
     18 Mn    c       0.000008     -0.000001      0.000002      0.000000
     19 Mn    c      -0.000001     -0.000004     -0.000002      0.000000
     20 Mn    c      -0.000005      0.000005      0.000001      0.000000
     21 Mn    c      -0.000001      0.000001     -0.000011      0.000000
     22 Mn    c      -0.000003     -0.000024      0.000014      0.000000
     23 Mn    c       0.000001      0.000002      0.000002      0.000000
     24 Mn    c       0.000003      0.000006     -0.000002      0.000000
     25 Li    c      -0.000014      0.000004      0.000002      0.000000
     26 Li    c       0.000001      0.000001     -0.000001      0.000000
     27 Li    c       0.000000      0.000000     -0.000000      0.000000
     28 Li    c      -0.000004      0.000001     -0.000001      0.000000
     29 O     c      -0.000000     -0.000001      0.000000      0.000000
     30 O     c      -0.000002     -0.000004      0.000007      0.000000
     31 O     c      -0.000002      0.000007     -0.000003      0.000000
     32 O     c       0.000001      0.000000     -0.000001      0.000000
     33 O     c      -0.000000      0.000001      0.000001      0.000000
     34 O     c       0.000011      0.000004      0.000003      0.000000
     35 O     c      -0.000001     -0.000000     -0.000000      0.000000
     36 O     c       0.000001     -0.000000     -0.000004      0.000000
     37 O     c       0.000001      0.000000      0.000001      0.000000
     38 O     c      -0.000001      0.000001      0.000000      0.000000
     39 O     c      -0.000008      0.000004      0.000014      0.000000
     40 O     c       0.000000      0.000001     -0.000001      0.000000
     41 O     c      -0.000001     -0.000001      0.000001      0.000000
     42 O     c       0.000001      0.000000     -0.000001      0.000000
     43 O     c       0.000003      0.000001     -0.000001      0.000000
     44 O     c       0.000001      0.000001      0.000000      0.000000
     45 O     c       0.000001      0.000001      0.000000      0.000000
     46 O     c       0.000017      0.000007     -0.000012      0.000000
     47 O     c      -0.000001      0.000001      0.000001      0.000000
     48 O     c       0.000000     -0.000001     -0.000001      0.000000
     49 O     c      -0.000001      0.000002     -0.000001      0.000000
     50 O     c      -0.000005      0.000005      0.000001      0.000000
     51 O     c      -0.000002     -0.000003      0.000002      0.000000
     52 O     c       0.000001      0.000002      0.000005      0.000000
     53 O     c      -0.000000      0.000001      0.000000      0.000000
     54 O     c      -0.000001     -0.000001     -0.000001      0.000000
     55 O     c       0.000000      0.000002     -0.000003      0.000000
     56 O     c       0.000000     -0.000000     -0.000001      0.000000
     57 O     c       0.000001     -0.000004     -0.000002      0.000000
     58 O     c       0.000001      0.000000     -0.000001      0.000000
     59 O     c      -0.000002      0.000001      0.000001      0.000000
     60 O     c      -0.000001      0.000000     -0.000000      0.000000
     61 O     c      -0.000001     -0.000001      0.000001      0.000000
     62 O     c      -0.000002     -0.000001      0.000000      0.000000
     63 O     c      -0.000000     -0.000001      0.000001      0.000000
     64 O     c       0.000001      0.000000      0.000000      0.000000
     65 O     c      -0.000001      0.000000      0.000000      0.000000
     66 O     c       0.000003     -0.000001     -0.000001      0.000000
     67 O     c       0.000001     -0.000001      0.000000      0.000000
     68 O     c       0.000000     -0.000003      0.000000      0.000000
     69 O     c      -0.000001     -0.000000      0.000001      0.000000
     70 O     c      -0.000000      0.000001     -0.000000      0.000000
     71 O     c      -0.000001     -0.000003     -0.000001      0.000000
     72 O     c       0.000000      0.000001      0.000000      0.000000
     73 O     c      -0.000001      0.000000      0.000000      0.000000
     74 O     c       0.000000      0.000000     -0.000001      0.000000
     75 O     c       0.000001      0.000001      0.000001      0.000000
     76 O     c       0.000000      0.000000      0.000000      0.000000
     77 Tc    s      -0.000021     -0.000018     -0.000001      0.000000
     78 Tc    s       0.000012     -0.000014      0.000013      0.000000
     79 Tc    s       0.000004     -0.000004      0.000002      0.000000
     80 Tc    s      -0.000011     -0.000000     -0.000001      0.000000
     81 O     s      -0.000002     -0.000004      0.000001      0.000000
     82 O     s       0.000003      0.000005     -0.000026      0.000000
     83 O     s       0.000031      0.000006     -0.000002      0.000000
     84 O     s      -0.000003      0.000000      0.000000      0.000000
     85 O     s      -0.000002     -0.000003     -0.000005      0.000000
     86 O     s      -0.000010     -0.000012     -0.000005      0.000000
     87 O     s      -0.000005      0.000003      0.000000      0.000000
     88 O     s      -0.000002     -0.000014     -0.000001      0.000000
     89 O     s      -0.000006     -0.000001     -0.000001      0.000000
     90 O     s       0.000004     -0.000005     -0.000003      0.000000
     91 O     s       0.000025     -0.000001     -0.000038      0.000000
     92 O     s       0.000000      0.000002     -0.000001      0.000000
     93 O     s       0.000001      0.000000     -0.000007      0.000000
     94 O     s      -0.000004      0.000005     -0.000000      0.000000
     95 O     s      -0.000012     -0.000004      0.000003      0.000000
     96 O     s      -0.000000     -0.000004     -0.000004      0.000000
     97 O     s       0.000002     -0.000008      0.000002      0.000000
     98 O     s      -0.000015      0.000019      0.000054      0.000000
     99 O     s       0.000011      0.000022     -0.000007      0.000000
    100 O     s       0.000001      0.000002      0.000003      0.000000
    101 O     s      -0.000006     -0.000024      0.000003      0.000000
    102 O     s       0.000015     -0.000018     -0.000001      0.000000
    103 O     s      -0.000009      0.000012     -0.000001      0.000000
    104 O     s      -0.000007     -0.000019     -0.000005      0.000000
    105 O     s      -0.000001     -0.000004      0.000002      0.000000
    106 O     s       0.000003      0.000009      0.000003      0.000000
    107 O     s       0.000001     -0.000007      0.000012      0.000000
    108 O     s       0.000003      0.000002      0.000001      0.000000
    109 O     s      -0.000011      0.000013      0.000010      0.000000
    110 O     s      -0.000005      0.000007      0.000002      0.000000
    111 O     s       0.000003     -0.000003     -0.000002      0.000000
    112 O     s       0.000001     -0.000002      0.000002      0.000000
    113 O     s       0.000002     -0.000003     -0.000002      0.000000
    114 O     s       0.000008      0.000001      0.000002      0.000000
    115 O     s       0.000005      0.000012     -0.000003      0.000000
    116 O     s       0.000000     -0.000001     -0.000003      0.000000
    117 O     s       0.000000      0.000001      0.000000      0.000000
    118 O     s       0.000002      0.000001     -0.000001      0.000000
    119 O     s      -0.000002      0.000004      0.000000      0.000000
    120 O     s      -0.000011     -0.000012     -0.000001      0.000000
    121 O     s      -0.000001      0.000001     -0.000001      0.000000
    122 O     s       0.000001     -0.000004      0.000003      0.000000
    123 O     s       0.000003     -0.000003      0.000004      0.000000
    124 O     s       0.000002     -0.000000     -0.000000      0.000000
    125 O     s       0.000001     -0.000003      0.000001      0.000000
    126 O     s      -0.000002      0.000005     -0.000000      0.000000
    127 O     s      -0.000004     -0.000003     -0.000001      0.000000
    128 O     s      -0.000001     -0.000005      0.000001      0.000000
--------------------------------------------------------------------------------
  Maximum abs         0.000031      0.000024      0.000054      0.000000
--------------------------------------------------------------------------------


  Born effective charge tensors : 

-------------------------------------------------------------------------------
  Atom             x           y             z
-------------------------------------------------------------------------------
    1 Tc    x       2.8349      0.2641      0.0217
            y       0.2623      2.3124      0.1263
            z       0.0998      0.2815      3.7483
-------------------------------------------------------------------------------
    2 Tc    x       2.7148      1.5115      0.5409
            y       1.1682      1.9727      0.2301
            z       0.3145      0.2604      4.0090
-------------------------------------------------------------------------------
    3 Tc    x       2.7808     -1.0930     -0.1497
            y      -0.7305      1.7050     -0.0287
            z       0.0017     -0.2552      3.2438
-------------------------------------------------------------------------------
    4 Tc    x       2.9432     -1.3217     -0.1751
            y      -1.0622      1.6765      0.1918
            z      -0.1053      0.1595      3.4349
-------------------------------------------------------------------------------
    5 Mn    x       1.6804     -0.0030     -0.1585
            y      -0.0997      0.4919      0.2522
            z      -0.0687      0.1685      0.9626
-------------------------------------------------------------------------------
    6 Mn    x       1.8039      1.1365      0.0068
            y       1.1647      0.7881     -0.1354
            z       0.1048     -0.1396      1.9567
-------------------------------------------------------------------------------
    7 Mn    x       1.3858      0.8717     -0.1946
            y       0.7902      0.2956      0.2206
            z      -0.2155      0.2711      0.4742
-------------------------------------------------------------------------------
    8 Mn    x       1.0589     -0.1823     -0.2202
            y      -0.2798      1.0513      0.9106
            z      -0.2442      0.8093      2.6493
-------------------------------------------------------------------------------
    9 Mn    x       1.5712      0.9363     -0.2184
            y       0.7147      0.4379     -0.5571
            z      -0.0793     -0.6340      0.5037
-------------------------------------------------------------------------------
   10 Mn    x       2.2513     -1.7550      0.5191
            y      -1.5771      1.0736      0.2190
            z       0.6383      0.3603      1.5203
-------------------------------------------------------------------------------
   11 Mn    x       1.8329      1.6421     -0.5465
            y       1.4209      0.7834      0.2466
            z      -0.6482      0.4697      1.1454
-------------------------------------------------------------------------------
   12 Mn    x       0.8167     -0.1394     -0.2167
            y      -0.1085      1.0259     -0.1954
            z      -0.2312     -0.0249      2.2427
-------------------------------------------------------------------------------
   13 Mn    x       2.4534     -1.1621     -0.0369
            y      -1.4313      1.0051      0.0493
            z      -0.0295      0.0124      2.2869
-------------------------------------------------------------------------------
   14 Mn    x       1.8553      0.2691     -0.2683
            y       0.3797      1.4681     -0.2385
            z      -0.2531     -0.1287      2.1252
-------------------------------------------------------------------------------
   15 Mn    x       1.7227      0.4072      0.1998
            y       0.8117      2.7500     -0.1721
            z       0.2751     -0.0206      2.2114
-------------------------------------------------------------------------------
   16 Mn    x       0.8393     -0.4913      0.0318
            y      -0.3116      0.4597      0.0599
            z      -0.0401      0.1799     -0.3289
-------------------------------------------------------------------------------
   17 Mn    x       2.0486      1.1445      0.6311
            y       1.2677      0.8254     -0.1738
            z       0.6408     -0.3581      2.0195
-------------------------------------------------------------------------------
   18 Mn    x       1.5620      0.3267      0.1866
            y       0.5225      1.9867      0.4289
            z       0.0659      0.2467      1.8820
-------------------------------------------------------------------------------
   19 Mn    x       3.0543     -0.6366     -0.0531
            y      -0.4652      1.4134     -0.6706
            z      -0.2404     -0.6532      1.2170
-------------------------------------------------------------------------------
   20 Mn    x       1.7645     -0.4772      0.0627
            y      -0.7663      2.9191      0.0626
            z      -0.0440     -0.0202      1.9292
-------------------------------------------------------------------------------
   21 Mn    x       1.8160     -0.3349      0.1336
            y      -0.5027      2.4846      0.1038
            z       0.1447      0.1182      2.0832
-------------------------------------------------------------------------------
   22 Mn    x       1.6463     -0.4377     -0.0306
            y      -0.6464      2.1856     -0.0899
            z       0.0223     -0.0345      1.5331
-------------------------------------------------------------------------------
   23 Mn    x       2.0680      0.2528      0.4872
            y       0.2771      1.1674     -0.6640
            z       0.4718     -0.7298      2.0695
-------------------------------------------------------------------------------
   24 Mn    x       2.1657     -1.3682     -0.5454
            y      -1.4595      0.9559     -0.2687
            z      -0.6101     -0.4170      1.9045
-------------------------------------------------------------------------------
   25 Li    x       1.4158     -0.1875      0.0571
            y      -0.1655      1.5337     -0.0182
            z       0.0467     -0.0861      0.8514
-------------------------------------------------------------------------------
   26 Li    x       1.1927     -0.2511     -0.0235
            y      -0.0437      1.6644      0.0371
            z       0.0037      0.0183      1.0181
-------------------------------------------------------------------------------
   27 Li    x       1.3299      0.2533     -0.0501
            y       0.1737      1.2873     -0.0248
            z      -0.0311     -0.0357      0.8287
-------------------------------------------------------------------------------
   28 Li    x       1.3287     -0.2683     -0.0672
            y      -0.1990      1.4529     -0.0081
            z      -0.0531      0.0557      0.8359
-------------------------------------------------------------------------------
   29 O     x      -1.2991     -0.0502      0.0120
            y       0.0329     -0.8143      0.0644
            z       0.0433      0.1148     -0.9054
-------------------------------------------------------------------------------
   30 O     x      -1.2065     -0.2791      0.0325
            y      -0.2717     -0.5875      0.0516
            z       0.0244      0.0432     -0.5401
-------------------------------------------------------------------------------
   31 O     x      -1.0582     -0.1576     -0.1046
            y      -0.2961     -0.7367     -0.0813
            z      -0.1127     -0.1335     -1.0332
-------------------------------------------------------------------------------
   32 O     x      -1.1475     -0.1900     -0.1082
            y      -0.2087     -0.6974      0.0233
            z      -0.1254      0.0709     -0.9920
-------------------------------------------------------------------------------
   33 O     x      -1.0238     -0.4141      0.0198
            y      -0.5075     -0.6464     -0.0033
            z      -0.0195      0.0101     -1.0884
-------------------------------------------------------------------------------
   34 O     x      -1.1457     -0.2088     -0.0715
            y      -0.2123     -0.8357      0.0062
            z      -0.0269      0.0093     -1.0631
-------------------------------------------------------------------------------
   35 O     x      -0.8072      0.2982     -0.1005
            y       0.1558     -0.6926      0.0776
            z      -0.0766      0.1215     -1.0872
-------------------------------------------------------------------------------
   36 O     x      -0.8600     -0.1937      0.0393
            y      -0.3232     -1.4385      0.1424
            z       0.0257      0.1088     -1.0688
-------------------------------------------------------------------------------
   37 O     x      -1.1395     -0.3370      0.0564
            y      -0.2179     -0.4835     -0.0478
            z       0.0665     -0.0464     -1.1093
-------------------------------------------------------------------------------
   38 O     x      -0.9912      0.2638     -0.0389
            y       0.3274     -0.6791      0.0163
            z      -0.0008     -0.0080     -0.7842
-------------------------------------------------------------------------------
   39 O     x      -1.2803      0.2422      0.0859
            y       0.2151     -0.6449      0.0247
            z       0.0679      0.0735     -1.4962
-------------------------------------------------------------------------------
   40 O     x      -1.3787      0.2050      0.0263
            y       0.4050     -0.5666     -0.1105
            z       0.0561     -0.1339     -0.9440
-------------------------------------------------------------------------------
   41 O     x      -0.9251     -0.4587      0.0260
            y      -0.2300     -0.8248      0.0244
            z       0.0268      0.0404     -1.3739
-------------------------------------------------------------------------------
   42 O     x      -0.6430      0.1946      0.0062
            y       0.3653     -1.3552     -0.0037
            z      -0.0032      0.0064     -1.2923
-------------------------------------------------------------------------------
   43 O     x      -1.0588      0.5506      0.0228
            y       0.2851     -0.8819     -0.0295
            z      -0.0141      0.0006     -1.0816
-------------------------------------------------------------------------------
   44 O     x      -1.0418      0.4439     -0.0513
            y       0.3664     -0.7933     -0.0166
            z      -0.0216      0.0052     -0.4387
-------------------------------------------------------------------------------
   45 O     x      -1.2557      0.0300     -0.0032
            y       0.1506     -0.8773     -0.0438
            z       0.0101     -0.0714     -1.0179
-------------------------------------------------------------------------------
   46 O     x      -1.3838     -0.1444     -0.0173
            y      -0.2208     -0.8086      0.2422
            z      -0.0388      0.2519     -0.9375
-------------------------------------------------------------------------------
   47 O     x      -1.4290     -0.0579      0.0599
            y      -0.1849     -0.7969      0.1435
            z       0.1153      0.1785     -1.0855
-------------------------------------------------------------------------------
   48 O     x      -1.2760     -0.2854      0.0615
            y      -0.1949     -0.7060     -0.0889
            z       0.0953     -0.1085     -1.0218
-------------------------------------------------------------------------------
   49 O     x      -0.9132     -0.3266     -0.1228
            y      -0.3398     -0.6948     -0.1458
            z      -0.0238     -0.1656     -1.1321
-------------------------------------------------------------------------------
   50 O     x      -1.0268     -0.3766     -0.0064
            y      -0.3114     -0.7350     -0.0150
            z      -0.0293     -0.0051     -0.6285
-------------------------------------------------------------------------------
   51 O     x      -1.4407      0.5780      0.0835
            y       0.4545     -1.1329      0.0038
            z       0.0235     -0.0554     -1.5708
-------------------------------------------------------------------------------
   52 O     x      -0.7330     -0.0689      0.0551
            y      -0.2235     -1.1558      0.0136
            z       0.0558     -0.0154     -1.2207
-------------------------------------------------------------------------------
   53 O     x      -1.2359     -0.3140     -0.1297
            y      -0.2416     -0.6046     -0.0005
            z      -0.1540      0.0056     -1.3603
-------------------------------------------------------------------------------
   54 O     x      -1.1131      0.3366      0.0111
            y       0.3195     -0.7017     -0.0293
            z      -0.0267     -0.0327     -0.7265
-------------------------------------------------------------------------------
   55 O     x      -1.1196      0.3067     -0.0295
            y       0.2450     -0.4888     -0.0015
            z      -0.0495     -0.0250     -1.2049
-------------------------------------------------------------------------------
   56 O     x      -1.3175      0.2002      0.1150
            y       0.3471     -0.8459     -0.0248
            z       0.0330     -0.0295     -1.2784
-------------------------------------------------------------------------------
   57 O     x      -1.0752     -0.5640     -0.0154
            y      -0.2970     -0.8964     -0.0658
            z      -0.0133     -0.1309     -1.4165
-------------------------------------------------------------------------------
   58 O     x      -0.6295      0.2749      0.0197
            y       0.4015     -1.5074     -0.0663
            z       0.0144     -0.0674     -1.3293
-------------------------------------------------------------------------------
   59 O     x      -1.1635      0.6809     -0.1369
            y       0.3263     -0.9254      0.0407
            z      -0.0689     -0.0205     -1.2130
-------------------------------------------------------------------------------
   60 O     x      -1.0454      0.2446      0.0295
            y       0.2460     -0.6941      0.0114
            z      -0.0136      0.0062     -0.6990
-------------------------------------------------------------------------------
   61 O     x      -0.9450      0.1538      0.0093
            y       0.2210     -0.7878     -0.0273
            z      -0.0060     -0.0445     -1.0555
-------------------------------------------------------------------------------
   62 O     x      -1.4497     -0.1760     -0.0312
            y      -0.4119     -0.6689     -0.1346
            z      -0.0202     -0.1948     -0.9438
-------------------------------------------------------------------------------
   63 O     x      -0.9788     -0.1534      0.0971
            y      -0.2654     -0.6892      0.0332
            z       0.0603      0.0733     -0.8775
-------------------------------------------------------------------------------
   64 O     x      -0.9635     -0.1885      0.0173
            y      -0.1654     -0.5696      0.0591
            z       0.0046      0.0398     -0.8395
-------------------------------------------------------------------------------
   65 O     x      -0.8460     -0.3307      0.1605
            y      -0.2695     -0.6680      0.1564
            z       0.1073      0.1869     -1.0913
-------------------------------------------------------------------------------
   66 O     x      -1.0539     -0.2528      0.0527
            y      -0.2467     -0.7549      0.0222
            z       0.0283      0.0061     -0.8845
-------------------------------------------------------------------------------
   67 O     x      -1.4575      0.6018      0.1710
            y       0.6081     -0.8754     -0.1513
            z       0.1777     -0.1571     -1.1409
-------------------------------------------------------------------------------
   68 O     x      -0.8198     -0.2235     -0.0478
            y      -0.3749     -1.4223     -0.1526
            z      -0.0618     -0.0859     -0.9127
-------------------------------------------------------------------------------
   69 O     x      -0.9985     -0.2262      0.0174
            y      -0.1956     -0.4190      0.0572
            z       0.0298      0.0441     -1.1558
-------------------------------------------------------------------------------
   70 O     x      -1.0674      0.3057      0.0177
            y       0.2841     -0.6715      0.0125
            z      -0.0106      0.0364     -0.7478
-------------------------------------------------------------------------------
   71 O     x      -1.2018      0.1755     -0.0510
            y       0.1708     -0.5982     -0.0140
            z      -0.0144     -0.0232     -1.5201
-------------------------------------------------------------------------------
   72 O     x      -1.1871      0.3319     -0.1176
            y       0.4146     -0.6634      0.0856
            z      -0.0537      0.1252     -0.9817
-------------------------------------------------------------------------------
   73 O     x      -1.0422     -0.5560     -0.0973
            y      -0.2837     -0.9085     -0.0146
            z      -0.0704      0.0383     -1.3486
-------------------------------------------------------------------------------
   74 O     x      -0.7133      0.2709     -0.0259
            y       0.4127     -1.5778      0.0336
            z      -0.0100      0.0430     -1.1149
-------------------------------------------------------------------------------
   75 O     x      -1.0318      0.5319      0.0529
            y       0.2719     -0.8783      0.0193
            z       0.0350      0.0347     -1.1653
-------------------------------------------------------------------------------
   76 O     x      -1.0175      0.4057      0.0249
            y       0.3632     -0.7707      0.0102
            z       0.0281      0.0065     -0.4365
-------------------------------------------------------------------------------




  Elastic Constant Matrix: (Units=GPa)

-------------------------------------------------------------------------------
  Indices      1         2         3         4         5         6    
-------------------------------------------------------------------------------
       1    151.4721   72.3257   99.2416   -3.0204    1.8324   -7.8197
       2     72.3257   89.5923   44.8779    1.5757   -1.1402   -2.5754
       3     99.2416   44.8779  603.7752    3.2081   -2.6976   -5.7425
       4     -3.0204    1.5757    3.2081   74.0236    3.3732    1.1954
       5      1.8324   -1.1402   -2.6976    3.3732  112.7953    1.1421
       6     -7.8197   -2.5754   -5.7425    1.1954    1.1421   60.4957
-------------------------------------------------------------------------------


  Elastic Compliance Matrix: (Units=1/GPa)

-------------------------------------------------------------------------------
  Indices      1         2         3         4         5         6    
-------------------------------------------------------------------------------
       1    0.011705 -0.008803 -0.001265  0.000719 -0.000341  0.001010
       2   -0.008803  0.018229  0.000094 -0.000762  0.000356 -0.000345
       3   -0.001265  0.000094  0.001858 -0.000138  0.000070  0.000018
       4    0.000719 -0.000762 -0.000138  0.013584 -0.000427 -0.000213
       5   -0.000341  0.000356  0.000070 -0.000427  0.008891 -0.000182
       6    0.001010 -0.000345  0.000018 -0.000213 -0.000182  0.016655
-------------------------------------------------------------------------------

  Mechanical properties :

-------------------------------------------------------------------------------
  Convention :                    Reuss         Voigt         Hill
-------------------------------------------------------------------------------
  Bulk  Modulus (GPa)     =      84.43038     141.97002     113.20020
  Shear Modulus (GPa)     =      52.73210      91.35587      72.04398
-------------------------------------------------------------------------------
  Velocity S-wave (km/s)  =       3.51024       4.62028       4.10297
  Velocity P-wave (km/s)  =       6.01313       7.85089       6.99265
-------------------------------------------------------------------------------
  Compressibility (1/GPa) =    0.01184408
-------------------------------------------------------------------------------
  Stress axis :                     x             y             z
-------------------------------------------------------------------------------
  Youngs Moduli (GPa)     =      85.43399      54.85739     538.08972
-------------------------------------------------------------------------------
  Poissons Ratio (x)      =                     0.48292       0.68086
  Poissons Ratio (y)      =       0.75210                    -0.05079
  Poissons Ratio (z)      =       0.10810      -0.00518
-------------------------------------------------------------------------------


  Piezoelectric Strain Matrix: (Units=C/m**2)

-------------------------------------------------------------------------------
  Indices      1         2         3         4         5         6    
-------------------------------------------------------------------------------
       x     3.27542  -8.73940  -8.54204   1.54919   0.00148   3.16013
       y     2.21747   6.49142   9.31592  -0.47735   0.76568  -1.13891
       z     2.54043  -0.52626  -2.68183   2.08238   2.03985  -0.55885
-------------------------------------------------------------------------------


  Piezoelectric Stress Matrix: (Units=10**-11 C/N)

-------------------------------------------------------------------------------
  Indices      1         2         3         4         5         6    
-------------------------------------------------------------------------------
       x    13.03885 -19.12208  -2.09996   3.05605  -0.60463   5.84678
       y    -4.47330  10.07196   1.52183  -1.12027   0.94227  -1.88328
       z     3.79986  -3.28787  -0.84024   3.01316   1.61080  -0.74229
-------------------------------------------------------------------------------


  Static dielectric constant tensor : 

-------------------------------------------------------------------------------
              x         y         z
-------------------------------------------------------------------------------
       x    10.10707  -1.34845   0.19950
       y    -1.34845   6.44628  -0.14413
       z     0.19950  -0.14413   7.61229
--------------------------------------------------------------------------------

  High frequency dielectric constant tensor : 

-------------------------------------------------------------------------------
              x         y         z
-------------------------------------------------------------------------------
       x     3.49291  -0.03257  -0.00310
       y    -0.03257   3.02819  -0.00136
       z    -0.00310  -0.00136   3.44799
-------------------------------------------------------------------------------

  Static refractive indices : 

-------------------------------------------------------------------------------
    1 =    2.44943      2 =    2.75630      3 =    3.25096
-------------------------------------------------------------------------------

  High frequency refractive indices : 

-------------------------------------------------------------------------------
    1 =    1.73951      2 =    1.85683      3 =    1.86959
-------------------------------------------------------------------------------


  Phonon Calculation : 

  Number of k points for this configuration =        1

--------------------------------------------------------------------------------
  K point      1 =   0.000000  0.000000  0.000000  Weight =    1.000
--------------------------------------------------------------------------------

  Frequencies (cm-1) [NB: Negative implies an imaginary mode]:

   -0.00   -0.00   -0.00   41.51   66.31   85.33   94.60  100.85  104.88
  108.32  114.80  118.85  125.59  131.50  135.65  138.80  139.36  146.91
  149.56  153.55  159.03  163.09  165.46  166.28  167.61  171.94  174.01
  177.25  178.00  186.74  188.80  189.19  191.45  192.82  193.43  195.97
  198.11  201.00  202.91  205.94  210.77  213.13  215.50  220.48  222.49
  224.89  226.34  230.60  233.06  235.15  239.69  243.12  247.89  248.67
  252.25  252.55  255.45  258.23  260.60  263.44  265.15  267.72  270.49
  273.00  275.08  278.73  281.43  281.84  285.14  288.91  290.99  294.26
  300.77  302.22  303.95  308.44  309.61  312.89  315.42  326.77  329.78
  331.41  334.65  336.54  338.62  340.41  342.26  343.45  346.38  348.40
  351.38  359.60  362.16  364.70  365.45  369.10  372.68  378.34  380.01
  383.75  386.79  390.28  391.92  396.63  398.19  399.94  402.51  406.85
  408.88  409.07  413.46  416.09  417.50  419.82  422.40  425.76  426.95
  429.01  432.38  433.43  434.90  437.01  438.84  439.85  440.65  441.67
  443.85  446.60  446.96  450.04  452.80  454.14  454.51  456.36  458.44
  459.29  461.58  463.82  466.00  467.57  468.61  470.01  470.21  472.32
  473.31  474.19  474.77  478.19  480.08  484.05  486.67  488.07  489.04
  490.31  493.29  493.80  496.15  497.98  499.02  501.86  506.19  508.41
  509.95  511.81  512.89  516.10  521.13  525.29  528.35  530.23  532.39
  532.56  536.42  538.72  545.31  547.88  550.91  552.10  556.22  559.62
  560.55  562.25  564.65  567.97  568.96  571.71  572.89  576.79  576.97
  579.02  579.62  585.26  586.28  587.58  591.91  593.52  599.39  603.12
  607.13  608.89  612.11  621.91  626.87  629.05  631.54  635.93  639.16
  650.55  658.98  663.47  664.89  665.55  668.24  678.17  679.61  688.28
  692.84  694.46  705.93  712.21  716.96  719.90  722.16  730.78  736.13
  739.54  747.72  773.31


--------------------------------------------------------------------------------
  Phonon properties (per mole of unit cells): Temperature =      0.000 K
--------------------------------------------------------------------------------
  Zero point energy             =        5.677861 eV
--------------------------------------------------------------------------------

  Phonon density of states : 

--------------------------------------------------------------------------------
 Frequency (cm-1) Density of States                                             
--------------------------------------------------------------------------------
    0.00000 |                                                              0.000
   12.08298 |                                                              0.000
   24.16597 |                                                              0.000
   36.24895 |*******                                                       0.004
   48.33194 |                                                              0.000
   60.41492 |*******                                                       0.004
   72.49790 |                                                              0.000
   84.58089 |***************                                               0.009
   96.66387 |**********************                                        0.013
  108.74685 |***************                                               0.009
  120.82984 |***************                                               0.009
  132.91282 |**********************                                        0.013
  144.99581 |**********************                                        0.013
  157.07879 |*************************************                         0.022
  169.16177 |******************************                                0.018
  181.24476 |*************************************                         0.022
  193.32774 |*************************************                         0.022
  205.41073 |******************************                                0.018
  217.49371 |******************************                                0.018
  229.57669 |******************************                                0.018
  241.65968 |*************************************                         0.022
  253.74266 |*************************************                         0.022
  265.82564 |******************************                                0.018
  277.90863 |*************************************                         0.022
  289.99161 |**********************                                        0.013
  302.07460 |*************************************                         0.022
  314.15758 |*******                                                       0.004
  326.24056 |*************************************                         0.022
  338.32355 |*********************************************                 0.027
  350.40653 |**********************                                        0.013
  362.48952 |******************************                                0.018
  374.57250 |**********************                                        0.013
  386.65548 |*************************************                         0.022
  398.73847 |*************************************                         0.022
  410.82145 |*************************************                         0.022
  422.90443 |*********************************************                 0.027
  434.98742 |************************************************************  0.036
  447.07040 |*********************************************                 0.027
  459.15339 |************************************************************  0.036
  471.23637 |*********************************************                 0.027
  483.31935 |****************************************************          0.031
  495.40234 |*************************************                         0.022
  507.48532 |*************************************                         0.022
  519.56831 |******************************                                0.018
  531.65129 |******************************                                0.018
  543.73427 |******************************                                0.018
  555.81726 |*************************************                         0.022
  567.90024 |************************************************************  0.036
  579.98322 |******************************                                0.018
  592.06621 |**********************                                        0.013
  604.14919 |**********************                                        0.013
  616.23218 |***************                                               0.009
  628.31516 |******************************                                0.018
  640.39814 |*******                                                       0.004
  652.48113 |***************                                               0.009
  664.56411 |**********************                                        0.013
  676.64710 |**********************                                        0.013
  688.73008 |***************                                               0.009
  700.81306 |***************                                               0.009
  712.89605 |**********************                                        0.013
  724.97903 |***************                                               0.009
  737.06201 |***************                                               0.009
  749.14500 |                                                              0.000
  761.22798 |*******                                                       0.004
--------------------------------------------------------------------------------



  Time to end of optimisation =      14.3779 seconds


  Peak dynamic memory used =       4.10 MB 


  Timing analysis for GULP :

--------------------------------------------------------------------------------
  Task / Subroutine                                          Time (Seconds)
--------------------------------------------------------------------------------
  Calculation of reciprocal space energy and derivatives          0.8069
  Calculation of real space energy and derivatives               10.6580
  Calculation of phonons                                          0.2690
  Calculation and manipulation of Hessian matrix                  0.0088
  Calculation of matrix diagonalisation                           0.0119
  Calculation of matrix inversion                                 0.2059
  Global summation overhead                                       0.0088
--------------------------------------------------------------------------------
  Total CPU time                                                 14.3779
--------------------------------------------------------------------------------


  Dump file written as gulp.res
  CIF file written as cryst.cif


  Job Finished at 19:04.41  8th September  2023                               

