********************************************************************************
*                       GENERAL UTILITY LATTICE PROGRAM                        *
*                                 Julian Gale                                  *
*                       Curtin Institute for Computation                       *
*                    School of Molecular and Life Sciences                     *
*                    Curtin University, Western Australia                      *
********************************************************************************
* Version = 6.1.2 * Last modified =   3rd November 2022                        *
********************************************************************************
*  optimise     - perform optimisation run                                     *
*  conp         - constant pressure calculation                                *
*  property     - calculate properties for final geometry                      *
*  phonon       - calculate phonons for final geometry                         *
*  nosymmetry   - turn off symmetry after initial structure generation         *
*  full         - generate full unit cell when symmetry is removed             *
*  distance     - calculate distances                                          *
*  compare      - compare initial and final structures                         *
********************************************************************************

  Job Started  at 16:52.49 21st November   2023                               

  Number of CPUs =     4

  Host name      = nid001027                               


  Total number of configurations input =      1

********************************************************************************
*  Input for Configuration =   1                                               *
********************************************************************************

  Formula = Tc12Mn12Li12O48                                             

  Number of irreducible atoms/shells =     144


  Total number atoms/shells =     144

  Dimensionality = 3               :  Bulk   



  Cartesian lattice vectors (Angstroms) :

        8.872874    0.000000    0.000000
        0.000000    9.432501    0.000000
        0.000000    0.000000    8.565761

  Cell parameters (Angstroms/Degrees):

  a =       8.8729    alpha =  90.0000
  b =       9.4325    beta  =  90.0000
  c =       8.5658    gamma =  90.0000

  Initial cell volume =         716.897611 Angs**3

  Temperature of configuration =   0.00     K 

  Pressure of configuration =         0.000 GPa 

  Fractional coordinates of asymmetric unit :

--------------------------------------------------------------------------------
   No.  Atomic       x           y          z         Charge      Occupancy
        Label      (Frac)      (Frac)     (Frac)        (e)         (Frac)  
--------------------------------------------------------------------------------
      1 Tc    c    0.343812 *  0.204168 *  0.907975 *   1.97100    1.000000    
      2 Tc    c    0.839379 *  0.000900 *  0.912479 *   1.97100    1.000000    
      3 Tc    c    0.671149 *  0.743127 *  0.405619 *   1.97100    1.000000    
      4 Tc    c    0.364134 *  0.722463 *  0.573940 *   1.97100    1.000000    
      5 Tc    c    0.366260 *  0.220187 *  0.244964 *   1.97100    1.000000    
      6 Tc    c    0.656087 *  0.233785 *  0.414095 *   1.97100    1.000000    
      7 Tc    c    0.839969 *  0.505249 *  0.575319 *   1.97100    1.000000    
      8 Tc    c    0.341862 *  0.712480 *  0.904199 *   1.97100    1.000000    
      9 Tc    c    0.147756 *  0.977902 *  0.407757 *   1.97100    1.000000    
     10 Tc    c    0.836221 *  0.000585 *  0.241829 *   1.97100    1.000000    
     11 Tc    c    0.842837 *  0.504186 *  0.904332 *   1.97100    1.000000    
     12 Tc    c    0.362172 *  0.222364 *  0.571354 *   1.97100    1.000000    
     13 Mn    c    0.143664 *  0.482454 *  0.405442 *   4.00000    1.000000    
     14 Mn    c    0.642420 *  0.725601 *  0.075178 *   4.00000    1.000000    
     15 Mn    c    0.652298 *  0.734262 *  0.746625 *   4.00000    1.000000    
     16 Mn    c    0.856553 *  0.988660 *  0.579582 *   4.00000    1.000000    
     17 Mn    c    0.654148 *  0.234368 *  0.072375 *   4.00000    1.000000    
     18 Mn    c    0.142785 *  0.976335 *  0.073474 *   4.00000    1.000000    
     19 Mn    c    0.141287 *  0.981125 *  0.742937 *   4.00000    1.000000    
     20 Mn    c    0.645581 *  0.229402 *  0.743416 *   4.00000    1.000000    
     21 Mn    c    0.864754 *  0.486355 *  0.237119 *   4.00000    1.000000    
     22 Mn    c    0.147442 *  0.484142 *  0.073747 *   4.00000    1.000000    
     23 Mn    c    0.361760 *  0.721817 *  0.238931 *   4.00000    1.000000    
     24 Mn    c    0.144478 *  0.483419 *  0.739423 *   4.00000    1.000000    
     25 Li    c    0.022814 *  0.242749 *  0.241821 *   1.00000    1.000000    
     26 Li    c    0.498331 *  0.983778 *  0.079891 *   1.00000    1.000000    
     27 Li    c    0.510595 *  0.463463 *  0.253724 *   1.00000    1.000000    
     28 Li    c    0.497680 *  0.451898 *  0.909412 *   1.00000    1.000000    
     29 Li    c    0.018048 *  0.751935 *  0.578175 *   1.00000    1.000000    
     30 Li    c    0.988958 *  0.755658 *  0.229741 *   1.00000    1.000000    
     31 Li    c    0.992191 *  0.253159 *  0.580431 *   1.00000    1.000000    
     32 Li    c    0.998863 *  0.256968 *  0.906914 *   1.00000    1.000000    
     33 Li    c    0.482871 *  0.992424 *  0.411884 *   1.00000    1.000000    
     34 Li    c    0.492991 *  0.983688 *  0.723442 *   1.00000    1.000000    
     35 Li    c    0.997337 *  0.759328 *  0.908765 *   1.00000    1.000000    
     36 Li    c    0.516194 *  0.463760 *  0.589820 *   1.00000    1.000000    
     37 O     c    0.058751 *  0.071291 *  0.240526 *   0.51300    1.000000    
     38 O     c    0.462446 *  0.317065 *  0.072077 *   0.51300    1.000000    
     39 O     c    0.590375 *  0.115115 *  0.236652 *   0.51300    1.000000    
     40 O     c    0.957909 *  0.391861 *  0.069893 *   0.51300    1.000000    
     41 O     c    0.310386 *  0.085906 *  0.083511 *   0.51300    1.000000    
     42 O     c    0.206410 *  0.365066 *  0.239248 *   0.51300    1.000000    
     43 O     c    0.829485 *  0.134489 *  0.073930 *   0.51300    1.000000    
     44 O     c    0.713691 *  0.358851 *  0.227807 *   0.51300    1.000000    
     45 O     c    0.055797 *  0.584963 *  0.239897 *   0.51300    1.000000    
     46 O     c    0.449294 *  0.812138 *  0.066299 *   0.51300    1.000000    
     47 O     c    0.553141 *  0.632816 *  0.243063 *   0.51300    1.000000    
     48 O     c    0.952861 *  0.889462 *  0.069767 *   0.51300    1.000000    
     49 O     c    0.313542 *  0.592470 *  0.087151 *   0.51300    1.000000    
     50 O     c    0.204881 *  0.846542 *  0.226070 *   0.51300    1.000000    
     51 O     c    0.811099 *  0.617393 *  0.090736 *   0.51300    1.000000    
     52 O     c    0.697632 *  0.856193 *  0.219235 *   0.51300    1.000000    
     53 O     c    0.051064 *  0.079858 *  0.576414 *   0.51300    1.000000    
     54 O     c    0.460541 *  0.331869 *  0.405236 *   0.51300    1.000000    
     55 O     c    0.559557 *  0.121921 *  0.581473 *   0.51300    1.000000    
     56 O     c    0.954118 *  0.381843 *  0.402236 *   0.51300    1.000000    
     57 O     c    0.308938 *  0.099165 *  0.407814 *   0.51300    1.000000    
     58 O     c    0.202762 *  0.365902 *  0.571141 *   0.51300    1.000000    
     59 O     c    0.817702 *  0.112542 *  0.424037 *   0.51300    1.000000    
     60 O     c    0.706020 *  0.355202 *  0.593658 *   0.51300    1.000000    
     61 O     c    0.062925 *  0.583581 *  0.570412 *   0.51300    1.000000    
     62 O     c    0.447101 *  0.821196 *  0.402679 *   0.51300    1.000000    
     63 O     c    0.596291 *  0.625626 *  0.574319 *   0.51300    1.000000    
     64 O     c    0.919218 *  0.868160 *  0.416233 *   0.51300    1.000000    
     65 O     c    0.300722 *  0.602735 *  0.395475 *   0.51300    1.000000    
     66 O     c    0.204498 *  0.856417 *  0.591307 *   0.51300    1.000000    
     67 O     c    0.807630 *  0.602504 *  0.389612 *   0.51300    1.000000    
     68 O     c    0.695007 *  0.871126 *  0.599015 *   0.51300    1.000000    
     69 O     c    0.079474 *  0.095245 *  0.909840 *   0.51300    1.000000    
     70 O     c    0.455917 *  0.320544 *  0.752254 *   0.51300    1.000000    
     71 O     c    0.583806 *  0.109673 *  0.909995 *   0.51300    1.000000    
     72 O     c    0.956688 *  0.394415 *  0.745772 *   0.51300    1.000000    
     73 O     c    0.305761 *  0.091771 *  0.731900 *   0.51300    1.000000    
     74 O     c    0.208616 *  0.367251 *  0.909517 *   0.51300    1.000000    
     75 O     c    0.814699 *  0.121622 *  0.730111 *   0.51300    1.000000    
     76 O     c    0.711009 *  0.345864 *  0.904403 *   0.51300    1.000000    
     77 O     c    0.084212 *  0.598378 *  0.907631 *   0.51300    1.000000    
     78 O     c    0.459238 *  0.809619 *  0.747357 *   0.51300    1.000000    
     79 O     c    0.586568 *  0.611138 *  0.906567 *   0.51300    1.000000    
     80 O     c    0.949882 *  0.890427 *  0.745033 *   0.51300    1.000000    
     81 O     c    0.318722 *  0.582640 *  0.733209 *   0.51300    1.000000    
     82 O     c    0.201292 *  0.863526 *  0.905070 *   0.51300    1.000000    
     83 O     c    0.830655 *  0.637258 *  0.742597 *   0.51300    1.000000    
     84 O     c    0.705902    0.844041    0.916685     0.51300    1.000000    
     85 Tc    s    0.343402 *  0.204837 *  0.908597 *   1.02900    1.000000    
     86 Tc    s    0.838504 *  0.000708 *  0.911445 *   1.02900    1.000000    
     87 Tc    s    0.671735 *  0.745946 *  0.406337 *   1.02900    1.000000    
     88 Tc    s    0.363121 *  0.720332 *  0.573567 *   1.02900    1.000000    
     89 Tc    s    0.364576 *  0.219915 *  0.243397 *   1.02900    1.000000    
     90 Tc    s    0.657842 *  0.235914 *  0.413250 *   1.02900    1.000000    
     91 Tc    s    0.839947 *  0.504749 *  0.575343 *   1.02900    1.000000    
     92 Tc    s    0.340877 *  0.711621 *  0.904354 *   1.02900    1.000000    
     93 Tc    s    0.147892 *  0.974343 *  0.408275 *   1.02900    1.000000    
     94 Tc    s    0.835934 *  0.000753 *  0.241417 *   1.02900    1.000000    
     95 Tc    s    0.842181 *  0.503937 *  0.905528 *   1.02900    1.000000    
     96 Tc    s    0.359417 *  0.223702 *  0.572373 *   1.02900    1.000000    
     97 O     s    0.065010 *  0.058186 *  0.237353 *  -2.51300    1.000000    
     98 O     s    0.470595 *  0.299499 *  0.075125 *  -2.51300    1.000000    
     99 O     s    0.593632 *  0.132840 *  0.231475 *  -2.51300    1.000000    
    100 O     s    0.962728 *  0.412696 *  0.077370 *  -2.51300    1.000000    
    101 O     s    0.299837 *  0.090514 *  0.078900 *  -2.51300    1.000000    
    102 O     s    0.202288 *  0.376152 *  0.239161 *  -2.51300    1.000000    
    103 O     s    0.808370 *  0.124964 *  0.071993 *  -2.51300    1.000000    
    104 O     s    0.722914 *  0.357288 *  0.222156 *  -2.51300    1.000000    
    105 O     s    0.054167 *  0.563718 *  0.239519 *  -2.51300    1.000000    
    106 O     s    0.452758 *  0.795186 *  0.073685 *  -2.51300    1.000000    
    107 O     s    0.548098 *  0.647510 *  0.232596 *  -2.51300    1.000000    
    108 O     s    0.962796 *  0.903962 *  0.067781 *  -2.51300    1.000000    
    109 O     s    0.297188 *  0.600867 *  0.089236 *  -2.51300    1.000000    
    110 O     s    0.212867 *  0.849816 *  0.221893 *  -2.51300    1.000000    
    111 O     s    0.799036 *  0.606572 *  0.092717 *  -2.51300    1.000000    
    112 O     s    0.702701 *  0.846042 *  0.217294 *  -2.51300    1.000000    
    113 O     s    0.048566 *  0.062294 *  0.581668 *  -2.51300    1.000000    
    114 O     s    0.462188 *  0.315458 *  0.402971 *  -2.51300    1.000000    
    115 O     s    0.559706 *  0.139784 *  0.587812 *  -2.51300    1.000000    
    116 O     s    0.958802 *  0.400050 *  0.393389 *  -2.51300    1.000000    
    117 O     s    0.307432 *  0.105623 *  0.407341 *  -2.51300    1.000000    
    118 O     s    0.201198 *  0.377243 *  0.570362 *  -2.51300    1.000000    
    119 O     s    0.807723 *  0.100274 *  0.427764 *  -2.51300    1.000000    
    120 O     s    0.706074 *  0.348805 *  0.597282 *  -2.51300    1.000000    
    121 O     s    0.069036 *  0.568387 *  0.569475 *  -2.51300    1.000000    
    122 O     s    0.441084 *  0.808236 *  0.399970 *  -2.51300    1.000000    
    123 O     s    0.599616 *  0.639399 *  0.581921 *  -2.51300    1.000000    
    124 O     s    0.916452 *  0.883768 *  0.424416 *  -2.51300    1.000000    
    125 O     s    0.290283 *  0.608000 *  0.390021 *  -2.51300    1.000000    
    126 O     s    0.202669 *  0.864718 *  0.595629 *  -2.51300    1.000000    
    127 O     s    0.804213 *  0.592420 *  0.387041 *  -2.51300    1.000000    
    128 O     s    0.709395 *  0.864775 *  0.603352 *  -2.51300    1.000000    
    129 O     s    0.084578 *  0.078048 *  0.908432 *  -2.51300    1.000000    
    130 O     s    0.463437 *  0.303908 *  0.750879 *  -2.51300    1.000000    
    131 O     s    0.590046 *  0.129686 *  0.908760 *  -2.51300    1.000000    
    132 O     s    0.966409 *  0.410663 *  0.747452 *  -2.51300    1.000000    
    133 O     s    0.294120 *  0.095559 *  0.736962 *  -2.51300    1.000000    
    134 O     s    0.204698 *  0.376489 *  0.911643 *  -2.51300    1.000000    
    135 O     s    0.799574 *  0.111335 *  0.727894 *  -2.51300    1.000000    
    136 O     s    0.707532 *  0.335764 *  0.905859 *  -2.51300    1.000000    
    137 O     s    0.089519 *  0.580889 *  0.908409 *  -2.51300    1.000000    
    138 O     s    0.465753 *  0.794966 *  0.743132 *  -2.51300    1.000000    
    139 O     s    0.592798 *  0.628420 *  0.909154 *  -2.51300    1.000000    
    140 O     s    0.954826 *  0.910619 *  0.738828 *  -2.51300    1.000000    
    141 O     s    0.301192 *  0.589660 *  0.735528 *  -2.51300    1.000000    
    142 O     s    0.198247 *  0.873403 *  0.904918 *  -2.51300    1.000000    
    143 O     s    0.811185 *  0.626407 *  0.744250 *  -2.51300    1.000000    
    144 O     s    0.704718 *  0.832493 *  0.914974 *  -2.51300    1.000000    
--------------------------------------------------------------------------------



  Distance calculation :


  Cutoff for distances  =      4.400000 Angstroms

--------------------------------------------------------------------------------
  Asymmetric unit site  Full lattice sites    No.  Distance      No.  Distance
      No.   At.No.            At.No.                (Angs)             (Angs) 
--------------------------------------------------------------------------------
       1   Tc    core        Tc    core         1    2.8931        1    2.8974
                             Tc    shell        1    2.8829        1    2.8839
                             Mn    core         1    3.0353        1    3.1059
                                                1    3.1071        1    3.1320
                                                1    3.4679        1    3.4858
                             O     core         1    1.8742        1    1.8956
                                                1    1.9508        1    1.9934
                                                1    2.0538        1    2.3085
                                                1    2.5606        1    3.4412
                                                1    3.4531        1    3.4768
                                                1    3.4955        1    3.5217
                                                1    3.6631        1    3.8775
                                                1    3.9803        1    4.0103
                                                1    4.0234        1    4.0483
                                                1    4.0966        1    4.0978
                                                1    4.1169        1    4.3740
                             O     shell        1    1.8411        1    1.8561
                                                1    1.9551        1    2.0308
                                                1    2.0412        1    2.2950
                                                1    2.5896        1    3.3768
                                                1    3.3999        1    3.4578
                                                1    3.5009        1    3.5538
                                                1    3.6117        1    3.9429
                                                1    3.9970        1    4.0578
                                                1    4.0723        1    4.1107
                                                1    4.1722        1    4.2092
                                                1    4.2227        1    4.2500
                                                1    4.3564        1    4.3892
                                                1    4.3904        1    4.3998
                             Li    core         1    2.7063        1    2.8931
                                                1    2.9284        1    3.1010
                                                1    3.9701        1    4.0524
                                                1    4.1162        1    4.2213
--------------------------------------------------------------------------------
       2   Tc    core        Tc    core         1    2.8213
                             Tc    shell        1    0.0119        1    2.8178
                             Mn    core         1    2.8579        1    3.0336
                                                1    3.0528        1    3.0703
                                                1    3.1144        1    3.3316
                                                1    3.4263
                             O     core         1    1.8730        1    1.8955
                                                1    1.9455        1    1.9834
                                                1    2.0259        1    2.3088
                                                1    2.4891        2    3.2170
                                                1    3.4482        1    3.4634
                                                1    3.4822        1    3.5170
                                                1    3.7084        1    3.7268
                                                1    3.9345        1    3.9378
                                                1    4.0649        1    4.0783
                                                1    4.1093        1    4.1110
                                                1    4.3070        1    4.3187
                                                1    4.3745
                             O     shell        1    1.8199        1    1.9261
                                                1    1.9506        1    1.9878
                                                1    1.9967        1    2.2944
                                                1    2.5241        1    3.1607
                                                1    3.2282        1    3.3688
                                                1    3.4043        1    3.4366
                                                1    3.4704        1    3.7107
                                                1    3.8232        1    3.9507
                                                1    4.0431        1    4.1070
                                                1    4.1391        1    4.1761
                                                1    4.2657        1    4.2670
                                                1    4.2755        1    4.3779
                                                1    4.3975
                             Li    core         1    2.6753        1    2.7998
                                                1    3.3525        1    3.4777
                                                1    3.8076        1    3.9484
                                                1    3.9764        1    4.0284
--------------------------------------------------------------------------------
       3   Tc    core        Tc    core         1    3.0645        1    3.0883
                                                1    3.1640
                             Tc    shell        1    0.0278        1    3.0680
                                                1    3.0961        1    3.1656
                             Mn    core         1    2.8467        1    2.9270
                                                1    3.1008        1    3.2079
                                                1    3.3016
                             O     core         1    1.8013        1    1.9343
                                                1    1.9385        1    2.0292
                                                1    2.0608        1    2.1201
                                                1    2.4988        1    3.1974
                                                1    3.3663        1    3.5352
                                                1    3.5446        1    3.5702
                                                1    3.7226        1    3.8626
                                                1    3.9498        1    3.9861
                                                1    4.0019        1    4.0099
                                                1    4.0424        1    4.0533
                                                1    4.0620        1    4.2330
                                                1    4.3058        1    4.3060
                             O     shell        1    1.8547        1    1.9034
                                                1    1.9081        1    2.0499
                                                1    2.0738        1    2.1323
                                                1    2.5540        1    3.1828
                                                1    3.3421        1    3.4523
                                                1    3.4757        1    3.5851
                                                1    3.6142        1    3.9907
                                                1    4.0263        1    4.0543
                                                1    4.0775        1    4.1204
                                                1    4.1228        1    4.1413
                                                1    4.1680        1    4.1728
                                                1    4.2968
                             Li    core         1    2.8850        1    3.1993
                                                1    3.2682        1    3.3651
                                                1    3.4155        1    3.8806
                                                1    3.9101
--------------------------------------------------------------------------------
       4   Tc    core        Tc    core         1    2.8374        1    3.0883
                                                1    3.3938
                             Tc    shell        1    0.0223        1    2.8396
                                                1    3.0918        1    3.3675
                             Mn    core         1    2.8697        1    2.9560
                                                1    3.3003        1    3.3219
                                                1    3.4580
                             O     core         1    1.8871        1    1.8959
                                                1    1.9039        1    1.9398
                                                1    1.9821        1    2.2533
                                                1    2.9765        1    3.2606
                                                1    3.4000        1    3.4501
                                                1    3.4994        1    3.6216
                                                1    3.6554        1    3.7728
                                                1    3.8588        1    3.9634
                                                1    4.0489        1    4.1482
                                                1    4.1658        1    4.1676
                                                1    4.2624        1    4.3673
                                                1    4.3682        1    4.3694
                                                1    4.3738        1    4.3884
                                                1    4.3929
                             O     shell        1    1.8280        1    1.8388
                                                1    1.9486        1    1.9717
                                                1    2.0192        1    2.2325
                                                1    2.9949        1    3.3541
                                                1    3.4225        1    3.4973
                                                1    3.5126        1    3.5629
                                                1    3.6260        1    3.8368
                                                1    3.9181        1    3.9911
                                                1    4.2000        1    4.2441
                                                1    4.2567        1    4.2818
                                                1    4.3035        1    4.3197
                                                1    4.3224        1    4.3293
                                                1    4.3481        1    4.3949
                             Li    core         1    2.7917        1    3.0031
                                                1    3.0835        1    3.0856
                                                1    3.8962        1    4.0218
                                                1    4.3518
--------------------------------------------------------------------------------
       5   Tc    core        Tc    core         1    2.7961        1    2.8974
                                                1    2.9544        1    3.3055
                             Tc    shell        1    0.0202        1    2.8054
                                                1    2.8920        1    2.9654
                                                1    3.3299
                             Mn    core         1    2.9544        1    3.3734
                                                1    3.4511        1    3.4813
                             O     core         1    1.8729        1    1.9221
                                                1    1.9382        1    1.9398
                                                1    1.9702        1    2.2230
                                                1    3.0690        1    3.3519
                                                1    3.4351        1    3.4798
                                                1    3.4838        1    3.6118
                                                1    3.7917        1    3.8076
                                                1    3.8757        1    4.0130
                                                1    4.0624        1    4.1848
                                                1    4.1993        1    4.2070
                                                1    4.2307        1    4.2425
                                                1    4.3763        1    4.3900
                                                1    4.3978
                             O     shell        1    1.8341        1    1.8371
                                                1    1.8797        1    1.9664
                                                1    2.0697        1    2.1823
                                                1    3.0796        1    3.4242
                                                1    3.4797        1    3.4851
                                                1    3.5186        1    3.6007
                                                1    3.7545        1    3.8792
                                                1    3.9217        1    4.0440
                                                1    4.1596        1    4.1911
                                                1    4.2627        1    4.2636
                                                1    4.2884        1    4.2991
                                                1    4.3353        1    4.3373
                                                1    4.3429        1    4.3674
                                                1    4.3908
                             Li    core         1    2.6290        1    2.7804
                                                1    2.8888        1    3.0549
                                                1    3.7945        1    3.9717
                                                1    4.3740
--------------------------------------------------------------------------------
       6   Tc    core        Tc    core         1    2.9372        1    2.9544
                                                1    3.0936        1    3.3355
                             Tc    shell        1    0.0264        1    2.9625
                                                1    2.9741        1    3.0929
                                                1    3.3319
                             Mn    core         1    2.8227        1    2.9272
                                                1    3.2433        1    3.3766
                             O     core         1    1.8362        1    1.9678
                                                1    1.9682        1    1.9755
                                                1    1.9756        1    2.0492
                                                1    2.9922        1    3.2291
                                                1    3.3321        1    3.4256
                                                1    3.4860        1    3.4949
                                                1    3.7347        1    3.7855
                                                1    3.9506        1    3.9782
                                                1    4.0402        1    4.1409
                                                1    4.1623        1    4.1648
                                                1    4.1811        1    4.2530
                                                1    4.3120        1    4.3436
                                                1    4.3582
                             O     shell        1    1.8466        1    1.8875
                                                1    1.9133        1    1.9318
                                                1    1.9586        1    2.1004
                                                1    3.1153        1    3.1906
                                                1    3.3219        1    3.3862
                                                1    3.3946        1    3.4178
                                                1    3.6366        1    3.8687
                                                1    4.0305        1    4.0484
                                                1    4.0993        1    4.1177
                                                1    4.2662        1    4.3033
                                                1    4.3086        1    4.3093
                                                1    4.3448        1    4.3888
                             Li    core         1    2.7469        1    2.8718
                                                1    2.9175        1    3.3101
                                                1    3.5739        1    3.8315
                                                1    3.9643
--------------------------------------------------------------------------------
       7   Tc    core        Tc    core         1    2.8184        1    3.0645
                                                1    3.3355
                             Tc    shell        1    2.8286        1    3.0786
                                                1    3.3155
                             Mn    core         1    2.9107        1    3.0526
                                                1    3.0700        1    3.0971
                                                1    3.4378
                             O     core         1    1.8548        1    1.8586
                                                1    1.9001        1    2.0730
                                                1    2.1122        1    2.1398
                                                1    2.4422        1    3.3934
                                                1    3.4674        1    3.4772
                                                1    3.5338        1    3.6838
                                                1    3.6886        1    3.7509
                                                1    3.7555        1    3.8604
                                                1    3.9293        1    4.0031
                                                1    4.0164        1    4.0329
                                                1    4.1164        1    4.2911
                                                1    4.3894
                             O     shell        1    1.8379        1    1.8615
                                                1    1.9038        1    2.0564
                                                1    2.1185        1    2.1272
                                                1    2.4804        1    3.4253
                                                1    3.4573        1    3.4897
                                                1    3.4914        1    3.5917
                                                1    3.6814        1    3.7864
                                                1    3.8573        1    3.9550
                                                1    4.0338        1    4.0768
                                                1    4.1267        1    4.1383
                                                1    4.1977        1    4.2519
                                                1    4.2584        1    4.3892
                             Li    core         1    2.7350        1    2.8127
                                                1    2.9020        1    3.9421
                                                1    3.9814        1    4.0111
                                                1    4.0354        1    4.1138
                                                1    4.2032
--------------------------------------------------------------------------------
       8   Tc    core        Tc    core         1    2.8374
                             Tc    shell        1    0.0120        1    2.8394
                             Mn    core         1    2.8740        1    3.0450
                                                1    3.0743        1    3.1183
                                                1    3.1189        1    3.3789
                                                1    3.3906
                             O     core         1    1.8936        1    1.9202
                                                1    1.9288        1    1.9311
                                                1    1.9495        1    2.3724
                                                1    2.5269        1    3.2422
                                                1    3.2677        1    3.4619
                                                1    3.4646        1    3.5361
                                                1    3.7084        1    3.8528
                                                1    3.8834        1    3.9722
                                                1    4.0197        1    4.0479
                                                1    4.0880        1    4.0954
                                                1    4.1381        1    4.2963
                                                1    4.3183        1    4.3464
                                                1    4.3489        1    4.3686
                             O     shell        1    1.8867        1    1.9195
                                                1    1.9280        1    1.9436
                                                1    1.9819        1    2.3639
                                                1    2.5603        1    3.2239
                                                1    3.2517        1    3.3955
                                                1    3.4113        1    3.4140
                                                1    3.6505        1    3.8850
                                                1    3.9100        1    3.9910
                                                1    4.0667        1    4.0908
                                                1    4.1356        1    4.1584
                                                1    4.2120        1    4.3010
                                                1    4.3154        1    4.3624
                                                1    4.3976
                             Li    core         1    2.8204        1    3.0889
                                                1    3.2771        1    3.2773
                                                1    3.8921        1    4.0240
                                                1    4.0893        1    4.2127
--------------------------------------------------------------------------------
       9   Tc    core        Tc    core         1    3.1156        1    3.3016
                                                1    3.3055        1    3.3938
                             Tc    shell        1    0.0339        1    3.1195
                                                1    3.3001        1    3.3006
                                                1    3.4017
                             Mn    core         1    2.8638        1    2.8718
                                                1    2.9753        1    3.3958
                             O     core         1    1.8313        1    1.8578
                                                1    1.9360        1    2.0096
                                                1    2.0529        1    2.2779
                                                1    3.0400        1    3.1951
                                                1    3.2906        1    3.2915
                                                1    3.4739        1    3.4799
                                                1    3.7916        1    3.9486
                                                1    3.9612        1    4.0425
                                                1    4.0584        1    4.1726
                                                1    4.1799        1    4.2612
                                                1    4.2656        1    4.2817
                                                1    4.3151        1    4.3417
                                                1    4.3871
                             O     shell        1    1.8008        1    1.8597
                                                1    1.9046        1    1.9917
                                                1    2.0804        1    2.2407
                                                1    3.0561        1    3.2349
                                                1    3.2970        1    3.2991
                                                1    3.3727        1    3.4147
                                                1    3.7143        1    4.0440
                                                1    4.0535        1    4.1626
                                                1    4.2336        1    4.2461
                                                1    4.2510        1    4.2992
                                                1    4.3183        1    4.3222
                                                1    4.3674        1    4.3808
                                                1    4.3891        1    4.3940
                             Li    core         1    2.8281        1    2.9504
                                                1    2.9768        1    3.0806
                                                1    3.2915        1    4.0864
                                                1    4.1912
--------------------------------------------------------------------------------
      10   Tc    core        Tc    core         1    2.8213        1    3.0936
                                                1    3.1156        1    3.1640
                             Tc    shell        1    2.8301        1    3.0965
                                                1    3.1211        1    3.1440
                             Mn    core         1    2.9009        1    3.0872
                                                1    3.0951        1    3.4238
                             O     core         1    1.8452        1    1.8916
                                                1    1.9150        1    2.0819
                                                1    2.0837        1    2.0841
                                                1    2.4346        1    3.3577
                                                1    3.5223        1    3.5245
                                                1    3.5520        1    3.5818
                                                1    3.6800        1    3.7622
                                                1    3.8457        1    3.9707
                                                1    3.9749        1    3.9894
                                                1    4.0844        1    4.1178
                                                1    4.1481        1    4.2828
                                                1    4.3397        1    4.3778
                             O     shell        1    1.8667        1    1.8852
                                                1    1.8901        1    2.0413
                                                1    2.0772        1    2.1018
                                                1    2.4894        1    3.4226
                                                1    3.5156        1    3.5160
                                                1    3.5351        1    3.6359
                                                1    3.6804        1    3.7939
                                                1    3.9437        1    4.0559
                                                1    4.0653        1    4.1311
                                                1    4.1719        1    4.1736
                                                1    4.1992        1    4.2843
                                                1    4.3049
                             Li    core         1    2.6804        1    2.8211
                                                1    3.3072        1    3.4579
                                                1    3.9194        1    4.0004
                                                1    4.0201        1    4.0502
--------------------------------------------------------------------------------
      11   Tc    core        Tc    core         1    2.8184
                             Tc    shell        1    0.0120        1    2.8182
                             Mn    core         1    2.8621        1    3.0327
                                                1    3.0648        1    3.0735
                                                1    3.1090        1    3.3693
                                                1    3.4178
                             O     core         1    1.8726        1    1.8969
                                                1    1.9414        1    1.9842
                                                1    2.0436        1    2.3188
                                                1    2.4877        1    3.2450
                                                1    3.2969        1    3.4298
                                                1    3.4934        1    3.5232
                                                1    3.5434        1    3.7535
                                                1    3.7795        1    3.9129
                                                1    4.0046        1    4.0209
                                                1    4.0600        1    4.0618
                                                1    4.0708        1    4.2704
                                                1    4.3741        1    4.3920
                             O     shell        1    1.8133        1    1.9203
                                                1    1.9458        1    1.9913
                                                1    2.0182        1    2.3055
                                                1    2.5094        1    3.2348
                                                1    3.2462        1    3.3317
                                                1    3.4298        1    3.4749
                                                1    3.5528        1    3.7297
                                                1    3.8667        1    4.0203
                                                1    4.0710        1    4.0779
                                                1    4.0960        1    4.1609
                                                1    4.1846        1    4.2064
                                                1    4.2316        1    4.3738
                                                1    4.3910
                             Li    core         1    2.7120        1    2.7699
                                                1    3.1023        1    3.8808
                                                1    3.8829        1    3.9602
                                                1    3.9753        1    4.1217
                                                1    4.2184
--------------------------------------------------------------------------------
      12   Tc    core        Tc    core         1    2.7961        1    2.8931
                                                1    2.9372        1    3.3016
                             Tc    shell        1    0.0289        1    2.8094
                                                1    2.8983        1    2.9551
                                                1    3.3225
                             Mn    core         1    2.9155        1    3.3435
                                                1    3.4347        1    3.4448
                             O     core         1    1.8804        1    1.9129
                                                1    1.9580        1    1.9630
                                                1    1.9876        1    1.9931
                                                1    3.0706        1    3.3037
                                                1    3.4372        1    3.4806
                                                1    3.6528        1    3.6621
                                                1    3.6904        1    3.7285
                                                1    3.9293        1    4.0170
                                                1    4.1200        1    4.1604
                                                1    4.1797        1    4.2202
                                                1    4.2628        1    4.3196
                                                1    4.3341        1    4.3444
                                                1    4.3591        1    4.3676
                                                1    4.3966
                             O     shell        1    1.8499        1    1.9076
                                                1    1.9232        1    1.9400
                                                1    1.9513        1    2.0431
                                                1    3.1671        1    3.2837
                                                1    3.4948        1    3.5443
                                                1    3.6339        1    3.6615
                                                1    3.6642        1    3.7780
                                                1    4.0064        1    4.0319
                                                1    4.1735        1    4.1875
                                                1    4.2144        1    4.2313
                                                1    4.2359        1    4.2376
                                                1    4.2974        1    4.3295
                                                1    4.3889
                             Li    core         1    2.6603        1    2.7779
                                                1    2.8483        1    3.2965
                                                1    3.7827        1    3.8103
                                                1    4.1317        1    4.3313
--------------------------------------------------------------------------------
      13   Mn    core        Tc    core         1    3.0700        1    3.3219
                                                1    3.4347        1    3.4511
                             Tc    shell        1    3.0699        1    3.3015
                                                1    3.4156        1    3.4498
                             Mn    core         1    2.8415        1    2.8608
                                                1    2.8643        1    3.2980
                             O     core         1    1.7990        1    1.8493
                                                1    1.8703        1    1.8851
                                                1    1.8875        1    1.9313
                                                1    3.1500        1    3.1923
                                                1    3.2836        1    3.3449
                                                1    3.4217        1    3.4555
                                                1    3.8013        1    3.9015
                                                1    3.9075        1    4.1408
                                                1    4.1486        1    4.1522
                                                1    4.1783        1    4.1945
                                                1    4.1958        1    4.2645
                                                1    4.2696        1    4.3114
                                                1    4.3398        1    4.3725
                             O     shell        1    1.7521        1    1.7642
                                                1    1.7995        1    1.8003
                                                1    1.8179        1    1.8180
                                                1    3.1894        1    3.2310
                                                1    3.2356        1    3.3026
                                                1    3.3122        1    3.3933
                                                1    3.8400        1    3.8544
                                                1    3.9911        1    4.0508
                                                1    4.1825        1    4.2185
                                                1    4.2304        1    4.2918
                                                1    4.3099        1    4.3240
                                                1    4.3553        1    4.3799
                                                1    4.3839
                             Li    core         1    2.8682        1    2.9548
                                                1    3.1453        1    3.2848
                                                1    3.5101        1    3.6676
--------------------------------------------------------------------------------
      14   Mn    core        Tc    core         1    2.8467        1    3.0450
                                                1    3.1090        1    3.4238
                                                1    3.4263
                             Tc    shell        1    2.8550        1    3.0524
                                                1    3.1024        1    3.4222
                                                1    3.4246
                             Mn    core         1    2.8169        1    2.8583
                                                1    3.3028
                             O     core         1    1.8111        1    1.8165
                                                1    1.8462        1    1.8605
                                                1    1.8701        1    1.8996
                                                1    3.1589        1    3.1785
                                                1    3.2789        1    3.3399
                                                1    3.4058        1    3.4185
                                                1    3.7519        1    3.9166
                                                1    3.9239        1    3.9529
                                                1    4.0466        1    4.1477
                                                1    4.1714        1    4.1988
                                                1    4.2128        1    4.2257
                                                1    4.2478        1    4.2500
                                                1    4.3183        1    4.3287
                                                1    4.3435        1    4.3744
                                                1    4.3974
                             O     shell        1    1.7483        1    1.7489
                                                1    1.7496        1    1.7903
                                                1    1.7928        1    1.8064
                                                1    3.2825        1    3.2836
                                                1    3.3038        1    3.3128
                                                1    3.3396        1    3.3969
                                                1    3.7636        1    3.9948
                                                1    4.0446        1    4.0909
                                                1    4.0958        1    4.0974
                                                1    4.1336        1    4.1808
                                                1    4.2024        1    4.2739
                                                1    4.2908        1    4.2987
                                                1    4.3194        1    4.3623
                                                1    4.3904
                             Li    core         1    2.7507        1    3.1338
                                                1    3.2141        1    3.3597
                                                1    3.4713        1    4.0813
                                                1    4.0941
--------------------------------------------------------------------------------
      15   Mn    core        Tc    core         1    2.9270        1    2.9560
                                                1    3.0648        1    3.0743
                                                1    3.0971        1    3.3316
                             Tc    shell        1    2.9220        1    2.9662
                                                1    3.0678        1    3.0832
                                                1    3.1002        1    3.3225
                             Mn    core         1    2.8169        1    3.3302
                             O     core         1    1.8283        1    1.8463
                                                1    1.8494        1    1.8546
                                                1    1.8642        1    1.8884
                                                1    3.0235        1    3.2892
                                                1    3.3589        1    3.4480
                                                1    3.5591        1    3.5772
                                                1    3.8377        1    3.8557
                                                1    3.9004        1    3.9302
                                                1    3.9395        1    4.0061
                                                1    4.1130        1    4.1917
                                                1    4.1920        1    4.2276
                                                1    4.2698        1    4.2740
                                                1    4.3456        1    4.3967
                                                1    4.3980
                             O     shell        1    1.7348        1    1.7386
                                                1    1.7517        1    1.7760
                                                1    1.7927        1    1.8106
                                                1    3.1586        1    3.3635
                                                1    3.4022        1    3.4546
                                                1    3.5800        1    3.6186
                                                1    3.7926        1    3.8837
                                                1    3.8858        1    4.0182
                                                1    4.0286        1    4.1334
                                                1    4.1421        1    4.1912
                                                1    4.2095        1    4.2922
                                                1    4.3419        1    4.3661
                                                1    4.3707        1    4.3918
                             Li    core         1    2.7519        1    3.1261
                                                1    3.3046        1    3.3701
                                                1    3.5555        1    3.9439
                                                1    4.0511
--------------------------------------------------------------------------------
      16   Mn    core        Tc    core         1    2.8579        1    2.9009
                                                1    2.9753        1    3.2079
                                                1    3.2433
                             Tc    shell        1    2.8494        1    2.9046
                                                1    2.9755        1    3.1832
                                                1    3.2524
                             Mn    core         1    2.8889        1    3.2604
                                                1    3.3302
                             O     core         1    1.8054        1    1.8197
                                                1    1.8367        1    1.8849
                                                1    1.8865        1    1.9286
                                                1    2.9197        1    3.3313
                                                1    3.4620        1    3.5016
                                                1    3.5952        1    3.6040
                                                1    3.6162        1    3.7084
                                                1    3.8949        1    3.9534
                                                1    4.0129        1    4.1002
                                                1    4.1305        1    4.1648
                                                1    4.1790        1    4.2377
                                                1    4.2415        1    4.3038
                                                1    4.3052        1    4.3859
                             O     shell        1    1.7284        1    1.7401
                                                1    1.7640        1    1.7784
                                                1    1.7912        1    1.8399
                                                1    2.9957        1    3.2889
                                                1    3.4983        1    3.5277
                                                1    3.5692        1    3.6474
                                                1    3.6532        1    3.7185
                                                1    3.9130        1    4.0064
                                                1    4.0228        1    4.1116
                                                1    4.1622        1    4.2317
                                                1    4.2591        1    4.2924
                                                1    4.3420        1    4.3431
                                                1    4.3605        1    4.3906
                             Li    core         1    2.6532        1    2.7700
                                                1    3.4535        1    3.6136
                                                1    3.7670        1    3.8975
                                                1    3.9826        1    4.0362
--------------------------------------------------------------------------------
      17   Mn    core        Tc    core         1    2.9272        1    2.9544
                                                1    3.0703        1    3.0951
                                                1    3.1059        1    3.3693
                             Tc    shell        1    2.9201        1    2.9608
                                                1    3.0714        1    3.0910
                                                1    3.1061        1    3.3603
                             Mn    core         1    2.8192        1    3.3366
                             O     core         1    1.8188        2    1.8522
                                                1    1.8713        1    1.8883
                                                1    1.9255        1    3.0776
                                                2    3.3576        1    3.4286
                                                1    3.4534        1    3.5356
                                                1    3.8021        1    3.8739
                                                1    3.8752        1    3.9427
                                                1    4.1234        1    4.1311
                                                1    4.1607        1    4.1628
                                                1    4.1964        1    4.2311
                                                1    4.2808        1    4.3754
                                                1    4.3782        1    4.3891
                                                1    4.3984
                             O     shell        1    1.7139        1    1.7408
                                                1    1.7501        1    1.7814
                                                1    1.8063        1    1.8338
                                                1    3.2137        1    3.2981
                                                1    3.3919        1    3.4233
                                                1    3.4245        1    3.5670
                                                1    3.7428        1    3.8914
                                                1    4.0083        1    4.0483
                                                1    4.1490        1    4.1606
                                                1    4.2354        1    4.2374
                                                1    4.2484        1    4.2647
                                                1    4.3274        1    4.3281
                                                1    4.3785
                             Li    core         1    2.7391        1    2.8436
                                                1    2.9504        1    3.3778
                                                1    3.5796        1    3.9969
                                                1    4.0705
--------------------------------------------------------------------------------
      18   Mn    core        Tc    core         1    2.8638        1    3.0336
                                                1    3.0872        1    3.1320
                                                1    3.3734        1    3.3789
                             Tc    shell        1    2.8682        1    3.0444
                                                1    3.0879        1    3.1319
                                                1    3.3571        1    3.3797
                             Mn    core         1    2.8317        1    3.3981
                             O     core         1    1.8130        1    1.8455
                                                1    1.8662        1    1.8737
                                                1    1.8741        1    1.8810
                                                1    3.1303        1    3.1549
                                                1    3.3913        1    3.4231
                                                1    3.4405        1    3.6873
                                                1    3.8727        1    3.9268
                                                1    3.9724        1    3.9887
                                                1    4.0319        1    4.1694
                                                1    4.2490        1    4.2615
                                                1    4.2865        1    4.2881
                                                1    4.2946        1    4.3171
                                                1    4.3423        1    4.3575
                                                1    4.3592
                             O     shell        1    1.7375        1    1.7444
                                                1    1.7618        1    1.7849
                                                1    1.8082        1    1.8512
                                                1    3.2379        1    3.2818
                                                1    3.3729        1    3.3738
                                                1    3.4351        1    3.7191
                                                1    3.7998        1    4.0169
                                                1    4.0583        1    4.0639
                                                1    4.1642        1    4.2133
                                                1    4.2177        1    4.2596
                                                1    4.2750        1    4.3350
                                                1    4.3707        1    4.3756
                             Li    core         1    2.8011        1    2.8262
                                                1    3.0867        1    3.1560
                                                1    3.2670        1    4.1870
                                                1    4.3186
--------------------------------------------------------------------------------
      19   Mn    core        Tc    core         1    2.8718        1    3.0528
                                                1    3.1071        1    3.3435
                                                1    3.3906        1    3.4580
                             Tc    shell        1    2.8680        1    3.0553
                                                1    3.1117        1    3.3341
                                                1    3.3927        1    3.4685
                             Mn    core         1    2.8317        1    2.8889
                             O     core         1    1.7966        1    1.8399
                                                1    1.8554        1    1.8717
                                                1    1.8822        1    1.9017
                                                1    3.1883        1    3.2523
                                                1    3.3735        1    3.4195
                                                1    3.4261        1    3.5846
                                                1    3.9090        1    3.9542
                                                1    3.9570        1    4.0760
                                                1    4.0901        1    4.1523
                                                1    4.1773        1    4.2049
                                                1    4.2172        1    4.2285
                                                1    4.2485        1    4.2564
                                                1    4.2583        1    4.2751
                                                1    4.3371        1    4.3514
                                                1    4.3653
                             O     shell        1    1.7340        1    1.7591
                                                1    1.7603        1    1.7808
                                                1    1.7835        1    1.7925
                                                1    3.2738        1    3.2834
                                                1    3.3653        1    3.3722
                                                1    3.4374        1    3.5024
                                                1    3.9562        1    4.0389
                                                1    4.0532        1    4.0586
                                                1    4.1607        1    4.1616
                                                1    4.1767        1    4.2161
                                                1    4.2177        1    4.2855
                                                1    4.3024        1    4.3290
                                                1    4.3323        1    4.3388
                                                1    4.3499        1    4.3752
                             Li    core         1    2.8037        1    2.8330
                                                1    3.1252        1    3.2050
                                                1    3.2155        1    4.1519
                                                1    4.2857
--------------------------------------------------------------------------------
      20   Mn    core        Tc    core         1    2.8227        1    2.9155
                                                1    3.0353        1    3.1144
                                                1    3.4178        1    3.4378
                             Tc    shell        1    2.8309        1    2.9320
                                                1    3.0405        1    3.1073
                                                1    3.4172        1    3.4340
                             Mn    core         1    2.8192        1    3.2604
                             O     core         1    1.8161        1    1.8279
                                                1    1.8562        1    1.8801
                                                1    1.8913        1    1.9005
                                                1    3.1691        1    3.2843
                                                1    3.3214        1    3.3541
                                                1    3.3881        1    3.4671
                                                1    3.6253        1    3.8978
                                                1    3.9626        1    4.0320
                                                1    4.1207        1    4.1829
                                                1    4.1849        1    4.2248
                                                1    4.2547        1    4.2911
                                                1    4.2959        1    4.3238
                                                1    4.3298        1    4.3671
                                                1    4.3777        1    4.3877
                                                1    4.3901
                             O     shell        1    1.7526        1    1.7635
                                                1    1.7673        1    1.7677
                                                1    1.7701        1    1.8013
                                                1    3.2960        1    3.3047
                                                1    3.3133        1    3.3208
                                                1    3.3648        1    3.4367
                                                1    3.6863        1    4.0227
                                                1    4.0498        1    4.0560
                                                1    4.0709        1    4.1275
                                                1    4.1460        1    4.3034
                                                1    4.3188        1    4.3292
                                                1    4.3693        1    4.3827
                                                2    4.3937        1    4.3975
                             Li    core         1    2.6896        1    2.8170
                                                1    2.8545        1    3.3849
                                                1    3.4431        1    3.8917
                                                1    3.9219
--------------------------------------------------------------------------------
      21   Mn    core        Tc    core         1    2.8621        1    2.9107
                                                1    3.3016        1    3.3766
                             Tc    shell        1    2.8522        1    2.9107
                                                1    3.3211        1    3.3507
                             Mn    core         1    2.8643        1    2.8723
                                                1    3.3028        1    3.3366
                             O     core         1    1.7786        1    1.8026
                                                1    1.8239        1    1.8787
                                                1    1.8976        1    1.9337
                                                1    3.0912        1    3.2402
                                                1    3.4263        1    3.4761
                                                1    3.5835        1    3.5880
                                                1    3.6149        1    3.7937
                                                1    3.8949        1    3.9364
                                                1    3.9443        1    3.9677
                                                1    4.1304        1    4.1381
                                                1    4.1582        1    4.2437
                                                1    4.2649        1    4.2769
                                                1    4.2948        1    4.2979
                                                1    4.3022        1    4.3739
                             O     shell        1    1.7142        1    1.7557
                                                1    1.7638        1    1.7751
                                                1    1.7765        1    1.8323
                                                1    3.1702        1    3.1947
                                                1    3.4625        1    3.4663
                                                1    3.5637        1    3.6309
                                                1    3.6888        1    3.7244
                                                1    3.9383        1    4.0230
                                                1    4.0425        1    4.1032
                                                1    4.1120        1    4.1549
                                                1    4.1578        1    4.1684
                                                1    4.1825        1    4.2361
                                                1    4.2566        1    4.2869
                                                1    4.3493
                             Li    core         1    2.6923        1    2.7697
                                                1    3.1530        1    3.7547
                                                1    3.8425        1    3.9905
                                                1    4.0817        1    4.3120
                                                1    4.3287
--------------------------------------------------------------------------------
      22   Mn    core        Tc    core         1    3.0735        1    3.1183
                                                1    3.4679        1    3.4813
                             Tc    shell        1    3.0737        1    3.1073
                                                1    3.4591        1    3.4692
                             Mn    core         1    2.8415        1    2.8639
                                                1    2.8723        1    3.2625
                             O     core         1    1.7970        1    1.8680
                                                1    1.8710        1    1.8828
                                                1    1.8939        1    1.8950
                                                1    3.2087        1    3.2415
                                                1    3.2704        1    3.3873
                                                1    3.4178        1    3.4338
                                                1    3.6942        1    3.8887
                                                1    3.9738        1    4.0259
                                                1    4.0926        1    4.1265
                                                1    4.1781        1    4.1951
                                                1    4.2021        1    4.2220
                                                1    4.2241        1    4.2367
                                                1    4.2465        1    4.3205
                                                1    4.3360        1    4.3401
                             O     shell        1    1.7307        1    1.7614
                                                1    1.7724        1    1.7937
                                                1    1.8068        1    1.8116
                                                1    3.2110        1    3.2973
                                                1    3.3040        1    3.3056
                                                1    3.3533        1    3.3548
                                                1    3.7208        1    3.9517
                                                1    3.9719        1    3.9933
                                                1    4.1066        1    4.1218
                                                1    4.1517        1    4.1856
                                                1    4.2759        1    4.2858
                                                1    4.2895        1    4.3176
                                                1    4.3207        1    4.3757
                                                1    4.3889        1    4.3977
                             Li    core         1    2.8934        1    2.9120
                                                1    3.2128        1    3.2417
                                                1    3.4251        1    3.5773
--------------------------------------------------------------------------------
      23   Mn    core        Tc    core         1    2.8697        1    2.8740
                                                1    3.1008        1    3.3958
[...]
   64 O     x      -1.6723     -0.0870     -0.1030
            y      -0.0839     -1.1126      0.1068
            z      -0.0656      0.0951     -1.7255
-------------------------------------------------------------------------------
   65 O     x      -1.1010     -0.3112      0.0084
            y      -0.2996     -1.1139      0.1017
            z       0.0335      0.1063     -1.4471
-------------------------------------------------------------------------------
   66 O     x      -1.4412      0.2081     -0.1224
            y       0.2550     -1.2691      0.1231
            z      -0.0614      0.0904     -1.5301
-------------------------------------------------------------------------------
   67 O     x      -1.2698      0.1787     -0.1954
            y       0.1504     -1.1793      0.1060
            z      -0.1941      0.1320     -1.3500
-------------------------------------------------------------------------------
   68 O     x      -1.2512     -0.4317      0.1571
            y      -0.4656     -1.3585      0.1856
            z       0.0899      0.0908     -1.3078
-------------------------------------------------------------------------------
   69 O     x      -1.2336     -0.0594     -0.0903
            y      -0.0506     -0.9187      0.0465
            z      -0.0359      0.0648     -1.2464
-------------------------------------------------------------------------------
   70 O     x      -1.6190      0.0010      0.0065
            y      -0.0954     -1.1104     -0.0174
            z      -0.0421      0.0541     -1.7887
-------------------------------------------------------------------------------
   71 O     x      -1.3180      0.0662     -0.0229
            y       0.0413     -0.9267     -0.0577
            z      -0.0665     -0.0593     -1.5251
-------------------------------------------------------------------------------
   72 O     x      -1.3437      0.2032     -0.0261
            y       0.1992     -1.0778     -0.0153
            z       0.0282      0.0033     -1.7881
-------------------------------------------------------------------------------
   73 O     x      -1.3883     -0.3331     -0.0358
            y      -0.3328     -1.2138      0.0173
            z       0.0258      0.0545     -1.6044
-------------------------------------------------------------------------------
   74 O     x      -1.1686      0.2101     -0.0815
            y       0.2474     -1.1654      0.1060
            z      -0.0623      0.0981     -1.7419
-------------------------------------------------------------------------------
   75 O     x      -1.3473      0.5873      0.0344
            y       0.4977     -1.3503     -0.0843
            z       0.0346     -0.0410     -1.3543
-------------------------------------------------------------------------------
   76 O     x      -1.0811     -0.1211     -0.0496
            y      -0.2095     -1.1055     -0.0828
            z      -0.0086     -0.0078     -1.3569
-------------------------------------------------------------------------------
   77 O     x      -1.2359     -0.0382      0.0724
            y      -0.0202     -0.9349     -0.0619
            z       0.0490     -0.0559     -1.3709
-------------------------------------------------------------------------------
   78 O     x      -1.5610      0.0422     -0.0053
            y       0.0122     -0.9696      0.0770
            z      -0.0509     -0.0066     -1.4140
-------------------------------------------------------------------------------
   79 O     x      -1.2836      0.1550      0.1119
            y       0.1234     -0.9402      0.0878
            z       0.0884      0.1002     -1.2044
-------------------------------------------------------------------------------
   80 O     x      -1.5170     -0.0014      0.0496
            y       0.0847     -0.9319     -0.0445
            z       0.0878     -0.1035     -1.4025
-------------------------------------------------------------------------------
   81 O     x      -1.0899     -0.1967     -0.0198
            y      -0.1704     -1.0782      0.0288
            z      -0.0059     -0.0041     -1.6848
-------------------------------------------------------------------------------
   82 O     x      -1.1445      0.1335     -0.1109
            y       0.2110     -1.0608      0.1017
            z      -0.0159      0.0281     -1.4084
-------------------------------------------------------------------------------
   83 O     x      -1.2581      0.3069     -0.0096
            y       0.3747     -1.3366      0.0183
            z       0.0187     -0.0556     -1.5288
-------------------------------------------------------------------------------
   84 O     x      -1.0761     -0.1767      0.0574
            y      -0.1711     -1.0881      0.0788
            z       0.0145      0.0204     -1.3443
-------------------------------------------------------------------------------




  Elastic Constant Matrix: (Units=GPa)

-------------------------------------------------------------------------------
  Indices      1         2         3         4         5         6    
-------------------------------------------------------------------------------
       1    373.4671  148.0203  183.0229   -2.7043   -4.1791    6.6836
       2    148.0203  362.5232  137.5204   -5.3851   -4.8402    3.4512
       3    183.0229  137.5204  628.6372   -3.7915   -5.3106   -0.3574
       4     -2.7043   -5.3851   -3.7915   70.2194   -5.5489    2.1221
       5     -4.1791   -4.8402   -5.3106   -5.5489  132.2961    1.1903
       6      6.6836    3.4512   -0.3574    2.1221    1.1903  132.3584
-------------------------------------------------------------------------------


  Elastic Compliance Matrix: (Units=1/GPa)

-------------------------------------------------------------------------------
  Indices      1         2         3         4         5         6    
-------------------------------------------------------------------------------
       1    0.003511 -0.001138 -0.000773  0.000014  0.000040 -0.000150
       2   -0.001138  0.003382 -0.000407  0.000201  0.000080 -0.000036
       3   -0.000773 -0.000407  0.001905  0.000043  0.000039  0.000054
       4    0.000014  0.000201  0.000043  0.014315  0.000612 -0.000241
       5    0.000040  0.000080  0.000039  0.000612  0.007591 -0.000082
       6   -0.000150 -0.000036  0.000054 -0.000241 -0.000082  0.007569
-------------------------------------------------------------------------------

  Mechanical properties :

-------------------------------------------------------------------------------
  Convention :                    Reuss         Voigt         Hill
-------------------------------------------------------------------------------
  Bulk  Modulus (GPa)     =     240.22390     255.75050     247.98720
  Shear Modulus (GPa)     =     112.88032     126.71237     119.79634
-------------------------------------------------------------------------------
  Velocity S-wave (km/s)  =       4.47087       4.73688       4.60580
  Velocity P-wave (km/s)  =       8.31806       8.67210       8.49693
-------------------------------------------------------------------------------
  Compressibility (1/GPa) =    0.00416278
-------------------------------------------------------------------------------
  Stress axis :                     x             y             z
-------------------------------------------------------------------------------
  Youngs Moduli (GPa)     =     284.84842     295.70395     524.85318
-------------------------------------------------------------------------------
  Poissons Ratio (x)      =                     0.33654       0.40560
  Poissons Ratio (y)      =       0.32418                     0.21339
  Poissons Ratio (z)      =       0.22013       0.12023
-------------------------------------------------------------------------------


  Piezoelectric Strain Matrix: (Units=C/m**2)

-------------------------------------------------------------------------------
  Indices      1         2         3         4         5         6    
-------------------------------------------------------------------------------
       x    15.62567   5.54353   5.90638   2.44219   0.67511   1.08561
       y    -0.48631  -2.29466   0.15076  -2.10164  -1.34388   1.32249
       z    -3.61822  -4.60299  -2.94221 -10.14298  -9.13103   1.21008
-------------------------------------------------------------------------------


  Piezoelectric Stress Matrix: (Units=10**-11 C/N)

-------------------------------------------------------------------------------
  Indices      1         2         3         4         5         6    
-------------------------------------------------------------------------------
       x     4.38806  -0.09317  -0.28856   3.66994   0.78304   0.53439
       y     0.05058  -0.78453   0.15242  -3.16875  -1.17941   1.07890
       z    -0.58797  -1.30663  -0.16648 -15.21807  -7.62493   1.29011
-------------------------------------------------------------------------------


  Static dielectric constant tensor : 

-------------------------------------------------------------------------------
              x         y         z
-------------------------------------------------------------------------------
       x    15.99251  -0.68653  -1.92644
       y    -0.68653   8.47979   1.79085
       z    -1.92644   1.79085  25.87899
--------------------------------------------------------------------------------

  High frequency dielectric constant tensor : 

-------------------------------------------------------------------------------
              x         y         z
-------------------------------------------------------------------------------
       x     4.38781  -0.02828   0.02739
       y    -0.02828   3.82016  -0.04116
       z     0.02739  -0.04116   4.47676
-------------------------------------------------------------------------------

  Static refractive indices : 

-------------------------------------------------------------------------------
    1 =    2.87501      2 =    3.95552      3 =    5.14193
-------------------------------------------------------------------------------

  High frequency refractive indices : 

-------------------------------------------------------------------------------
    1 =    1.95355      2 =    2.09296      3 =    2.11846
-------------------------------------------------------------------------------


  Phonon Calculation : 

  Number of k points for this configuration =        1

--------------------------------------------------------------------------------
  K point      1 =   0.000000  0.000000  0.000000  Weight =    1.000
--------------------------------------------------------------------------------

  Frequencies (cm-1) [NB: Negative implies an imaginary mode]:

   -0.00    0.00    0.00   49.34   82.73   92.31   94.99  100.31  101.04
  103.52  105.84  110.86  116.89  118.69  122.69  126.37  127.78  130.24
  133.62  136.10  136.42  140.71  143.92  147.37  149.79  152.65  155.99
  157.88  158.97  159.53  163.52  164.52  166.35  168.24  170.71  171.93
  176.33  177.33  178.39  181.14  182.31  185.42  188.83  189.48  189.74
  192.21  193.20  195.38  196.59  198.34  199.01  201.00  206.35  209.18
  210.55  210.78  212.15  214.81  220.52  221.45  224.11  225.34  226.20
  226.68  229.18  233.76  234.62  237.57  239.24  239.59  243.13  243.86
  245.23  248.40  256.11  256.54  259.12  260.67  263.37  266.23  268.02
  272.47  276.46  277.87  279.12  285.10  287.27  290.47  292.71  293.08
  296.62  301.69  303.10  304.77  305.88  309.43  310.17  311.84  313.53
  316.81  318.37  319.40  322.33  324.78  327.51  329.79  330.89  332.55
  334.12  337.74  339.33  340.74  343.67  346.60  347.37  348.20  349.90
  350.81  355.38  356.95  360.04  362.74  364.95  365.15  367.61  369.37
  369.92  371.41  372.20  377.28  378.96  379.66  380.34  382.51  386.24
  386.74  389.96  391.33  392.93  393.59  395.08  397.83  398.52  400.75
  403.40  404.69  406.29  407.04  409.24  411.21  411.59  413.87  414.97
  416.58  418.16  420.28  420.98  423.46  426.76  427.99  429.16  429.70
  432.23  433.28  435.14  436.47  438.14  439.53  440.22  443.50  447.21
  449.96  453.90  456.99  458.75  460.81  462.68  466.97  467.52  469.18
  471.65  473.40  473.64  476.80  478.85  480.16  482.26  487.70  488.81
  491.43  498.09  501.44  502.65  504.44  506.10  509.42  511.88  515.24
  517.30  520.07  523.39  525.06  525.59  528.02  532.05  533.54  534.98
  537.78  539.02  539.75  540.81  546.34  547.63  551.46  552.94  557.71
  559.50  563.17  564.49  567.35  573.85  575.33  579.82  582.71  587.91
  590.06  595.25  597.12  603.86  609.09  612.56  615.98  619.66  622.07
  623.10  625.00  630.11  631.49  634.19  637.26  647.07  652.48  657.08
  661.37  665.74  669.56  673.00  675.87  680.51  686.15  691.54  698.61


--------------------------------------------------------------------------------
  Phonon properties (per mole of unit cells): Temperature =      0.000 K
--------------------------------------------------------------------------------
  Zero point energy             =        5.721561 eV
--------------------------------------------------------------------------------

  Phonon density of states : 

--------------------------------------------------------------------------------
 Frequency (cm-1) Density of States                                             
--------------------------------------------------------------------------------
    0.00000 |***************                                               0.008
   10.91575 |                                                              0.000
   21.83151 |                                                              0.000
   32.74726 |                                                              0.000
   43.66301 |*******                                                       0.004
   54.57877 |                                                              0.000
   65.49452 |                                                              0.000
   76.41027 |*******                                                       0.004
   87.32602 |***************                                               0.008
   98.24178 |******************************                                0.016
  109.15753 |**********************                                        0.012
  120.07328 |******************************                                0.016
  130.98904 |******************************                                0.016
  141.90479 |******************************                                0.016
  152.82054 |*************************************                         0.020
  163.73630 |*************************************                         0.020
  174.65205 |*********************************************                 0.024
  185.56780 |*********************************************                 0.024
  196.48356 |*************************************                         0.020
  207.39931 |*************************************                         0.020
  218.31506 |****************************************************          0.028
  229.23082 |*************************************                         0.020
  240.14657 |******************************                                0.016
  251.06232 |******************************                                0.016
  261.97807 |******************************                                0.016
  272.89383 |**********************                                        0.012
  283.80958 |*************************************                         0.020
  294.72533 |******************************                                0.016
  305.64109 |*************************************                         0.020
  316.55684 |*************************************                         0.020
  327.47259 |*********************************************                 0.024
  338.38835 |*********************************************                 0.024
  349.30410 |*************************************                         0.020
  360.21985 |*********************************************                 0.024
  371.13561 |*********************************************                 0.024
  382.05136 |*********************************************                 0.024
  392.96711 |*********************************************                 0.024
  403.88287 |****************************************************          0.028
  414.79862 |*********************************************                 0.024
  425.71437 |************************************************************  0.032
  436.63012 |*************************************                         0.020
  447.54588 |**********************                                        0.012
  458.46163 |*********************************************                 0.024
  469.37738 |*********************************************                 0.024
  480.29314 |**********************                                        0.012
  491.20889 |**********************                                        0.012
  502.12464 |*************************************                         0.020
  513.04040 |******************************                                0.016
  523.95615 |*************************************                         0.020
  534.87190 |*************************************                         0.020
  545.78766 |******************************                                0.016
  556.70341 |*************************************                         0.020
  567.61916 |***************                                               0.008
  578.53492 |**********************                                        0.012
  589.45067 |**********************                                        0.012
  600.36642 |***************                                               0.008
  611.28217 |******************************                                0.016
  622.19793 |******************************                                0.016
  633.11368 |***************                                               0.008
  644.02943 |***************                                               0.008
  654.94519 |**********************                                        0.012
  665.86094 |**********************                                        0.012
  676.77669 |***************                                               0.008
  687.69245 |***************                                               0.008
--------------------------------------------------------------------------------



  Time to end of optimisation =       5.4181 seconds


  Peak dynamic memory used =       3.11 MB 


  Timing analysis for GULP :

--------------------------------------------------------------------------------
  Task / Subroutine                                          Time (Seconds)
--------------------------------------------------------------------------------
  Calculation of reciprocal space energy and derivatives          0.3172
  Calculation of real space energy and derivatives                3.7512
  Calculation of phonons                                          0.1897
  Calculation and manipulation of Hessian matrix                  0.0039
  Calculation of matrix diagonalisation                           0.0112
  Calculation of matrix inversion                                 0.0995
  Global summation overhead                                       0.0964
--------------------------------------------------------------------------------
  Total CPU time                                                  5.4181
--------------------------------------------------------------------------------


  Dump file written as gulp.res
  CIF file written as cryst.cif


  Job Finished at 16:52.54 21st November   2023                               

