********************************************************************************
*                       GENERAL UTILITY LATTICE PROGRAM                        *
*                                 Julian Gale                                  *
*                       Curtin Institute for Computation                       *
*                    School of Molecular and Life Sciences                     *
*                    Curtin University, Western Australia                      *
********************************************************************************
* Version = 6.1.2 * Last modified =   3rd November 2022                        *
********************************************************************************
*  optimise     - perform optimisation run                                     *
*  conp         - constant pressure calculation                                *
*  property     - calculate properties for final geometry                      *
*  phonon       - calculate phonons for final geometry                         *
*  nosymmetry   - turn off symmetry after initial structure generation         *
*  full         - generate full unit cell when symmetry is removed             *
*  distance     - calculate distances                                          *
*  compare      - compare initial and final structures                         *
********************************************************************************

  Job Started  at 18:08.28 14th November   2023                               

  Number of CPUs =     4

  Host name      = nid003454                               


  Total number of configurations input =      1

********************************************************************************
*  Input for Configuration =   1                                               *
********************************************************************************

  Formula = Tc24Li24O48                                                 

  Number of irreducible atoms/shells =     168


  Total number atoms/shells =     168

  Dimensionality = 3               :  Bulk   



  Cartesian lattice vectors (Angstroms) :

        8.872874    0.000000    0.000000
        0.000000    9.432501    0.000000
        0.000000    0.000000    8.565761

  Cell parameters (Angstroms/Degrees):

  a =       8.8729    alpha =  90.0000
  b =       9.4325    beta  =  90.0000
  c =       8.5658    gamma =  90.0000

  Initial cell volume =         716.897611 Angs**3

  Temperature of configuration =   0.00     K 

  Pressure of configuration =         0.000 GPa 

  Fractional coordinates of asymmetric unit :

--------------------------------------------------------------------------------
   No.  Atomic       x           y          z         Charge      Occupancy
        Label      (Frac)      (Frac)     (Frac)        (e)         (Frac)  
--------------------------------------------------------------------------------
      1 Tc    c    0.816710 *  0.511467 *  0.916685 *   1.97100    1.000000    
      2 Tc    c    0.594949 *  0.761467 *  0.083352 *   1.97100    1.000000    
      3 Tc    c    0.094949 *  0.577087 *  0.750018 *   1.97100    1.000000    
      4 Tc    c    0.816710 *  0.011467 *  0.583352 *   1.97100    1.000000    
      5 Tc    c    0.316710 *  0.327087 *  0.250018 *   1.97100    1.000000    
      6 Tc    c    0.316710 *  0.827087 *  0.583352 *   1.97100    1.000000    
      7 Tc    c    0.094949 *  0.077087 *  0.416685 *   1.97100    1.000000    
      8 Tc    c    0.594949 *  0.261467 *  0.083352 *   1.97100    1.000000    
      9 Tc    c    0.594949 *  0.761467 *  0.416685 *   1.97100    1.000000    
     10 Tc    c    0.816710 *  0.511467 *  0.250018 *   1.97100    1.000000    
     11 Tc    c    0.316710 *  0.827087 *  0.916685 *   1.97100    1.000000    
     12 Tc    c    0.094949 *  0.577087 *  0.416685 *   1.97100    1.000000    
     13 Tc    c    0.594949 *  0.261467 *  0.750018 *   1.97100    1.000000    
     14 Tc    c    0.594949 *  0.761467 *  0.750018 *   1.97100    1.000000    
     15 Tc    c    0.594949 *  0.261467 *  0.416685 *   1.97100    1.000000    
     16 Tc    c    0.316710 *  0.827087 *  0.250018 *   1.97100    1.000000    
     17 Tc    c    0.094949 *  0.577087 *  0.083352 *   1.97100    1.000000    
     18 Tc    c    0.094949 *  0.077087 *  0.083352 *   1.97100    1.000000    
     19 Tc    c    0.816710 *  0.011467 *  0.250018 *   1.97100    1.000000    
     20 Tc    c    0.816710 *  0.011467 *  0.916685 *   1.97100    1.000000    
     21 Tc    c    0.316710 *  0.327087 *  0.583352 *   1.97100    1.000000    
     22 Tc    c    0.816710 *  0.511467 *  0.583352 *   1.97100    1.000000    
     23 Tc    c    0.316710 *  0.327087 *  0.916685 *   1.97100    1.000000    
     24 Tc    c    0.094949 *  0.077087 *  0.750018 *   1.97100    1.000000    
     25 Li    c    0.545721 *  0.505325 *  0.250018 *   1.00000    1.000000    
     26 Li    c    0.865938 *  0.255325 *  0.416685 *   1.00000    1.000000    
     27 Li    c    0.365938 *  0.083229 *  0.750018 *   1.00000    1.000000    
     28 Li    c    0.865938 *  0.755325 *  0.416685 *   1.00000    1.000000    
     29 Li    c    0.045721 *  0.833229 *  0.250018 *   1.00000    1.000000    
     30 Li    c    0.045721 *  0.333229 *  0.250018 *   1.00000    1.000000    
     31 Li    c    0.865938 *  0.255325 *  0.083352 *   1.00000    1.000000    
     32 Li    c    0.365938 *  0.583229 *  0.750018 *   1.00000    1.000000    
     33 Li    c    0.865938 *  0.255325 *  0.750018 *   1.00000    1.000000    
     34 Li    c    0.045721 *  0.333229 *  0.583352 *   1.00000    1.000000    
     35 Li    c    0.865938 *  0.755325 *  0.750018 *   1.00000    1.000000    
     36 Li    c    0.545721 *  0.505325 *  0.916685 *   1.00000    1.000000    
     37 Li    c    0.045721 *  0.833229 *  0.916685 *   1.00000    1.000000    
     38 Li    c    0.365938 *  0.083229 *  0.416685 *   1.00000    1.000000    
     39 Li    c    0.365938 *  0.583229 *  0.083352 *   1.00000    1.000000    
     40 Li    c    0.545721 *  0.505325 *  0.583352 *   1.00000    1.000000    
     41 Li    c    0.865938 *  0.755325 *  0.083352 *   1.00000    1.000000    
     42 Li    c    0.365938 *  0.583229 *  0.416685 *   1.00000    1.000000    
     43 Li    c    0.045721 *  0.833229 *  0.583352 *   1.00000    1.000000    
     44 Li    c    0.545721 *  0.005325 *  0.916685 *   1.00000    1.000000    
     45 Li    c    0.365938 *  0.083229 *  0.083352 *   1.00000    1.000000    
     46 Li    c    0.545721 *  0.005325 *  0.250018 *   1.00000    1.000000    
     47 Li    c    0.045721 *  0.333229 *  0.916685 *   1.00000    1.000000    
     48 Li    c    0.545721 *  0.005325 *  0.583352 *   1.00000    1.000000    
     49 O     c    0.968287 *  0.161749 *  0.250018 *   0.51300    1.000000    
     50 O     c    0.443372 *  0.411749 *  0.083352 *   0.51300    1.000000    
     51 O     c    0.468287 *  0.176805 *  0.250018 *   0.51300    1.000000    
     52 O     c    0.943372 *  0.426805 *  0.083352 *   0.51300    1.000000    
     53 O     c    0.205757 *  0.244513 *  0.083352 *   0.51300    1.000000    
     54 O     c    0.205902 *  0.494513 *  0.250018 *   0.51300    1.000000    
     55 O     c    0.705757 *  0.094041 *  0.083352 *   0.51300    1.000000    
     56 O     c    0.705902 *  0.344041 *  0.250018 *   0.51300    1.000000    
     57 O     c    0.968287 *  0.661749 *  0.250018 *   0.51300    1.000000    
     58 O     c    0.443372 *  0.911749 *  0.083352 *   0.51300    1.000000    
     59 O     c    0.468287 *  0.676805 *  0.250018 *   0.51300    1.000000    
     60 O     c    0.943372 *  0.926805 *  0.083352 *   0.51300    1.000000    
     61 O     c    0.205757 *  0.744513 *  0.083352 *   0.51300    1.000000    
     62 O     c    0.205902 *  0.994513 *  0.250018 *   0.51300    1.000000    
     63 O     c    0.705757 *  0.594041 *  0.083352 *   0.51300    1.000000    
     64 O     c    0.705902 *  0.844041 *  0.250018 *   0.51300    1.000000    
     65 O     c    0.968287 *  0.161749 *  0.583352 *   0.51300    1.000000    
     66 O     c    0.443372 *  0.411749 *  0.416685 *   0.51300    1.000000    
     67 O     c    0.468287 *  0.176805 *  0.583352 *   0.51300    1.000000    
     68 O     c    0.943372 *  0.426805 *  0.416685 *   0.51300    1.000000    
     69 O     c    0.205757 *  0.244513 *  0.416685 *   0.51300    1.000000    
     70 O     c    0.205902 *  0.494513 *  0.583352 *   0.51300    1.000000    
     71 O     c    0.705757 *  0.094041 *  0.416685 *   0.51300    1.000000    
     72 O     c    0.705902 *  0.344041 *  0.583352 *   0.51300    1.000000    
     73 O     c    0.968287 *  0.661749 *  0.583352 *   0.51300    1.000000    
     74 O     c    0.443372 *  0.911749 *  0.416685 *   0.51300    1.000000    
     75 O     c    0.468287 *  0.676805 *  0.583352 *   0.51300    1.000000    
     76 O     c    0.943372 *  0.926805 *  0.416685 *   0.51300    1.000000    
     77 O     c    0.205757 *  0.744513 *  0.416685 *   0.51300    1.000000    
     78 O     c    0.205902 *  0.994513 *  0.583352 *   0.51300    1.000000    
     79 O     c    0.705757 *  0.594041 *  0.416685 *   0.51300    1.000000    
     80 O     c    0.705902 *  0.844041 *  0.583352 *   0.51300    1.000000    
     81 O     c    0.968287 *  0.161749 *  0.916685 *   0.51300    1.000000    
     82 O     c    0.443372 *  0.411749 *  0.750018 *   0.51300    1.000000    
     83 O     c    0.468287 *  0.176805 *  0.916685 *   0.51300    1.000000    
     84 O     c    0.943372 *  0.426805 *  0.750018 *   0.51300    1.000000    
     85 O     c    0.205757 *  0.244513 *  0.750018 *   0.51300    1.000000    
     86 O     c    0.205902 *  0.494513 *  0.916685 *   0.51300    1.000000    
     87 O     c    0.705757 *  0.094041 *  0.750018 *   0.51300    1.000000    
     88 O     c    0.705902 *  0.344041 *  0.916685 *   0.51300    1.000000    
     89 O     c    0.968287 *  0.661749 *  0.916685 *   0.51300    1.000000    
     90 O     c    0.443372 *  0.911749 *  0.750018 *   0.51300    1.000000    
     91 O     c    0.468287 *  0.676805 *  0.916685 *   0.51300    1.000000    
     92 O     c    0.943372 *  0.926805 *  0.750018 *   0.51300    1.000000    
     93 O     c    0.205757 *  0.744513 *  0.750018 *   0.51300    1.000000    
     94 O     c    0.205902 *  0.994513 *  0.916685 *   0.51300    1.000000    
     95 O     c    0.705757 *  0.594041 *  0.750018 *   0.51300    1.000000    
     96 O     c    0.705902    0.844041    0.916685     0.51300    1.000000    
     97 Tc    s    0.816490 *  0.511405 *  0.916685 *   1.02900    1.000000    
     98 Tc    s    0.595169 *  0.761405 *  0.083352 *   1.02900    1.000000    
     99 Tc    s    0.095169 *  0.577149 *  0.750018 *   1.02900    1.000000    
    100 Tc    s    0.816490 *  0.011405 *  0.583352 *   1.02900    1.000000    
    101 Tc    s    0.316490 *  0.327149 *  0.250018 *   1.02900    1.000000    
    102 Tc    s    0.316490 *  0.827149 *  0.583352 *   1.02900    1.000000    
    103 Tc    s    0.095169 *  0.077149 *  0.416685 *   1.02900    1.000000    
    104 Tc    s    0.595169 *  0.261405 *  0.083352 *   1.02900    1.000000    
    105 Tc    s    0.595169 *  0.761405 *  0.416685 *   1.02900    1.000000    
    106 Tc    s    0.816490 *  0.511405 *  0.250018 *   1.02900    1.000000    
    107 Tc    s    0.316490 *  0.827149 *  0.916685 *   1.02900    1.000000    
    108 Tc    s    0.095169 *  0.577149 *  0.416685 *   1.02900    1.000000    
    109 Tc    s    0.595169 *  0.261405 *  0.750018 *   1.02900    1.000000    
    110 Tc    s    0.595169 *  0.761405 *  0.750018 *   1.02900    1.000000    
    111 Tc    s    0.595169 *  0.261405 *  0.416685 *   1.02900    1.000000    
    112 Tc    s    0.316490 *  0.827149 *  0.250018 *   1.02900    1.000000    
    113 Tc    s    0.095169 *  0.577149 *  0.083352 *   1.02900    1.000000    
    114 Tc    s    0.095169 *  0.077149 *  0.083352 *   1.02900    1.000000    
    115 Tc    s    0.816490 *  0.011405 *  0.250018 *   1.02900    1.000000    
    116 Tc    s    0.816490 *  0.011405 *  0.916685 *   1.02900    1.000000    
    117 Tc    s    0.316490 *  0.327149 *  0.583352 *   1.02900    1.000000    
    118 Tc    s    0.816490 *  0.511405 *  0.583352 *   1.02900    1.000000    
    119 Tc    s    0.316490 *  0.327149 *  0.916685 *   1.02900    1.000000    
    120 Tc    s    0.095169 *  0.077149 *  0.750018 *   1.02900    1.000000    
    121 O     s    0.971863 *  0.151792 *  0.250018 *  -2.51300    1.000000    
    122 O     s    0.439795 *  0.401792 *  0.083352 *  -2.51300    1.000000    
    123 O     s    0.471863 *  0.186762 *  0.250018 *  -2.51300    1.000000    
    124 O     s    0.939795 *  0.436762 *  0.083352 *  -2.51300    1.000000    
    125 O     s    0.212843 *  0.241783 *  0.083352 *  -2.51300    1.000000    
    126 O     s    0.198815 *  0.491783 *  0.250018 *  -2.51300    1.000000    
    127 O     s    0.712843 *  0.096771 *  0.083352 *  -2.51300    1.000000    
    128 O     s    0.698815 *  0.346771 *  0.250018 *  -2.51300    1.000000    
    129 O     s    0.971863 *  0.651792 *  0.250018 *  -2.51300    1.000000    
    130 O     s    0.439795 *  0.901792 *  0.083352 *  -2.51300    1.000000    
    131 O     s    0.471863 *  0.686762 *  0.250018 *  -2.51300    1.000000    
    132 O     s    0.939795 *  0.936762 *  0.083352 *  -2.51300    1.000000    
    133 O     s    0.212843 *  0.741783 *  0.083352 *  -2.51300    1.000000    
    134 O     s    0.198815 *  0.991783 *  0.250018 *  -2.51300    1.000000    
    135 O     s    0.712843 *  0.596771 *  0.083352 *  -2.51300    1.000000    
    136 O     s    0.698815 *  0.846771 *  0.250018 *  -2.51300    1.000000    
    137 O     s    0.971863 *  0.151792 *  0.583352 *  -2.51300    1.000000    
    138 O     s    0.439795 *  0.401792 *  0.416685 *  -2.51300    1.000000    
    139 O     s    0.471863 *  0.186762 *  0.583352 *  -2.51300    1.000000    
    140 O     s    0.939795 *  0.436762 *  0.416685 *  -2.51300    1.000000    
    141 O     s    0.212843 *  0.241783 *  0.416685 *  -2.51300    1.000000    
    142 O     s    0.198815 *  0.491783 *  0.583352 *  -2.51300    1.000000    
    143 O     s    0.712843 *  0.096771 *  0.416685 *  -2.51300    1.000000    
    144 O     s    0.698815 *  0.346771 *  0.583352 *  -2.51300    1.000000    
    145 O     s    0.971863 *  0.651792 *  0.583352 *  -2.51300    1.000000    
    146 O     s    0.439795 *  0.901792 *  0.416685 *  -2.51300    1.000000    
    147 O     s    0.471863 *  0.686762 *  0.583352 *  -2.51300    1.000000    
    148 O     s    0.939795 *  0.936762 *  0.416685 *  -2.51300    1.000000    
    149 O     s    0.212843 *  0.741783 *  0.416685 *  -2.51300    1.000000    
    150 O     s    0.198815 *  0.991783 *  0.583352 *  -2.51300    1.000000    
    151 O     s    0.712843 *  0.596771 *  0.416685 *  -2.51300    1.000000    
    152 O     s    0.698815 *  0.846771 *  0.583352 *  -2.51300    1.000000    
    153 O     s    0.971863 *  0.151792 *  0.916685 *  -2.51300    1.000000    
    154 O     s    0.439795 *  0.401792 *  0.750018 *  -2.51300    1.000000    
    155 O     s    0.471863 *  0.186762 *  0.916685 *  -2.51300    1.000000    
    156 O     s    0.939795 *  0.436762 *  0.750018 *  -2.51300    1.000000    
    157 O     s    0.212843 *  0.241783 *  0.750018 *  -2.51300    1.000000    
    158 O     s    0.198815 *  0.491783 *  0.916685 *  -2.51300    1.000000    
    159 O     s    0.712843 *  0.096771 *  0.750018 *  -2.51300    1.000000    
    160 O     s    0.698815 *  0.346771 *  0.916685 *  -2.51300    1.000000    
    161 O     s    0.971863 *  0.651792 *  0.916685 *  -2.51300    1.000000    
    162 O     s    0.439795 *  0.901792 *  0.750018 *  -2.51300    1.000000    
    163 O     s    0.471863 *  0.686762 *  0.916685 *  -2.51300    1.000000    
    164 O     s    0.939795 *  0.936762 *  0.750018 *  -2.51300    1.000000    
    165 O     s    0.212843 *  0.741783 *  0.750018 *  -2.51300    1.000000    
    166 O     s    0.198815 *  0.991783 *  0.916685 *  -2.51300    1.000000    
    167 O     s    0.712843 *  0.596771 *  0.750018 *  -2.51300    1.000000    
    168 O     s    0.698815 *  0.846771 *  0.916685 *  -2.51300    1.000000    
--------------------------------------------------------------------------------



  Distance calculation :


  Cutoff for distances  =      4.400000 Angstroms

--------------------------------------------------------------------------------
  Asymmetric unit site  Full lattice sites    No.  Distance      No.  Distance
      No.   At.No.            At.No.                (Angs)             (Angs) 
--------------------------------------------------------------------------------
       1   Tc    core        Tc    core         2    2.8553        2    2.9182
                                                4    3.3868
                             Tc    shell        2    2.8553        2    2.9200
                                                2    3.3853        2    3.3861
                             O     core         1    1.8603        2    1.9010
                                                1    1.9540        2    1.9847
                                                1    3.2875        2    3.4078
                                                1    3.4570        2    3.4599
                                                1    3.4626        1    3.5623
                                                2    3.7277        2    4.3023
                                                2    4.3185        2    4.3343
                                                2    4.3543
                             O     shell        1    1.8729        2    1.8801
                                                1    1.9097        2    1.9306
                                                1    3.3313        1    3.3955
                                                2    3.4147        2    3.4351
                                                1    3.4780        1    3.6613
                                                2    3.7806        2    4.2648
                                                1    4.3293        2    4.3717
                                                2    4.3875        2    4.3959
                             Li    core         1    2.4052        1    2.6373
                                                2    2.7422        2    2.8401
                                                1    3.6524        2    3.7333
                                                2    3.8869        2    4.3004
--------------------------------------------------------------------------------
       2   Tc    core        Tc    core         2    2.8553        2    2.9182
                                                4    3.3868
                             Tc    shell        2    2.8553        2    2.9200
                                                2    3.3853        2    3.3861
                             O     core         1    1.8603        2    1.9010
                                                1    1.9540        2    1.9847
                                                1    3.2875        2    3.4078
                                                1    3.4570        2    3.4599
                                                1    3.4626        1    3.5623
                                                2    3.7277        2    4.3023
                                                2    4.3185        2    4.3343
                                                2    4.3543
                             O     shell        1    1.8729        2    1.8801
                                                1    1.9097        2    1.9306
                                                1    3.3313        1    3.3955
                                                2    3.4147        2    3.4351
                                                1    3.4780        1    3.6613
                                                2    3.7806        2    4.2648
                                                1    4.3293        2    4.3717
                                                2    4.3875        2    4.3959
                             Li    core         1    2.4052        1    2.6373
                                                2    2.7422        2    2.8401
                                                1    3.6524        2    3.7333
                                                2    3.8869        2    4.3004
--------------------------------------------------------------------------------
       3   Tc    core        Tc    core         2    2.8553        2    2.9182
                                                4    3.3868
                             Tc    shell        2    2.8553        2    2.9200
                                                2    3.3853        2    3.3861
                             O     core         1    1.8603        2    1.9010
                                                1    1.9540        2    1.9847
                                                1    3.2875        2    3.4078
                                                1    3.4570        2    3.4599
                                                1    3.4626        1    3.5623
                                                2    3.7277        2    4.3023
                                                2    4.3185        2    4.3343
                                                2    4.3543
                             O     shell        1    1.8729        2    1.8801
                                                1    1.9097        2    1.9306
                                                1    3.3313        1    3.3955
                                                2    3.4147        2    3.4351
                                                1    3.4780        1    3.6613
                                                2    3.7806        2    4.2648
                                                1    4.3293        2    4.3717
                                                2    4.3875        2    4.3959
                             Li    core         1    2.4052        1    2.6373
                                                2    2.7422        2    2.8401
                                                1    3.6524        2    3.7333
                                                2    3.8869        2    4.3004
--------------------------------------------------------------------------------
       4   Tc    core        Tc    core         2    2.8553        2    2.9182
                                                4    3.3868
                             Tc    shell        2    2.8553        2    2.9200
                                                2    3.3853        2    3.3861
                             O     core         1    1.8603        2    1.9010
                                                1    1.9540        2    1.9847
                                                1    3.2875        2    3.4078
                                                1    3.4570        2    3.4599
                                                1    3.4626        1    3.5623
                                                2    3.7277        2    4.3023
                                                2    4.3185        2    4.3343
                                                2    4.3543
                             O     shell        1    1.8729        2    1.8801
                                                1    1.9097        2    1.9306
                                                1    3.3313        1    3.3955
                                                2    3.4147        2    3.4351
                                                1    3.4780        1    3.6613
                                                2    3.7806        2    4.2648
                                                1    4.3293        2    4.3717
                                                2    4.3875        2    4.3959
                             Li    core         1    2.4052        1    2.6373
                                                2    2.7422        2    2.8401
                                                1    3.6524        2    3.7333
                                                2    3.8869        2    4.3004
--------------------------------------------------------------------------------
       5   Tc    core        Tc    core         2    2.8553        2    2.9182
                                                4    3.3868
                             Tc    shell        2    2.8553        2    2.9200
                                                2    3.3853        2    3.3861
                             O     core         1    1.8603        2    1.9010
                                                1    1.9540        2    1.9847
                                                1    3.2875        2    3.4078
                                                1    3.4570        2    3.4599
                                                1    3.4626        1    3.5623
                                                2    3.7277        2    4.3023
                                                2    4.3185        2    4.3343
                                                2    4.3543
                             O     shell        1    1.8729        2    1.8801
                                                1    1.9097        2    1.9306
                                                1    3.3313        1    3.3955
                                                2    3.4147        2    3.4351
                                                1    3.4780        1    3.6613
                                                2    3.7806        2    4.2648
                                                1    4.3293        2    4.3717
                                                2    4.3875        2    4.3959
                             Li    core         1    2.4052        1    2.6373
                                                2    2.7422        2    2.8401
                                                1    3.6524        2    3.7333
                                                2    3.8869        2    4.3004
--------------------------------------------------------------------------------
       6   Tc    core        Tc    core         2    2.8553        2    2.9182
                                                4    3.3868
                             Tc    shell        2    2.8553        2    2.9200
                                                2    3.3853        2    3.3861
                             O     core         1    1.8603        2    1.9010
                                                1    1.9540        2    1.9847
                                                1    3.2875        2    3.4078
                                                1    3.4570        2    3.4599
                                                1    3.4626        1    3.5623
                                                2    3.7277        2    4.3023
                                                2    4.3185        2    4.3343
                                                2    4.3543
                             O     shell        1    1.8729        2    1.8801
                                                1    1.9097        2    1.9306
                                                1    3.3313        1    3.3955
                                                2    3.4147        2    3.4351
                                                1    3.4780        1    3.6613
                                                2    3.7806        2    4.2648
                                                1    4.3293        2    4.3717
                                                2    4.3875        2    4.3959
                             Li    core         1    2.4052        1    2.6373
                                                2    2.7422        2    2.8401
                                                1    3.6524        2    3.7333
                                                2    3.8869        2    4.3004
--------------------------------------------------------------------------------
       7   Tc    core        Tc    core         2    2.8553        2    2.9182
                                                4    3.3868
                             Tc    shell        2    2.8553        2    2.9200
                                                2    3.3853        2    3.3861
                             O     core         1    1.8603        2    1.9010
                                                1    1.9540        2    1.9847
                                                1    3.2875        2    3.4078
                                                1    3.4570        2    3.4599
                                                1    3.4626        1    3.5623
                                                2    3.7277        2    4.3023
                                                2    4.3185        2    4.3343
                                                2    4.3543
                             O     shell        1    1.8729        2    1.8801
                                                1    1.9097        2    1.9306
                                                1    3.3313        1    3.3955
                                                2    3.4147        2    3.4351
                                                1    3.4780        1    3.6613
                                                2    3.7806        2    4.2648
                                                1    4.3293        2    4.3717
                                                2    4.3875        2    4.3959
                             Li    core         1    2.4052        1    2.6373
                                                2    2.7422        2    2.8401
                                                1    3.6524        2    3.7333
                                                2    3.8869        2    4.3004
--------------------------------------------------------------------------------
       8   Tc    core        Tc    core         2    2.8553        2    2.9182
                                                4    3.3868
                             Tc    shell        2    2.8553        2    2.9200
                                                2    3.3853        2    3.3861
                             O     core         1    1.8603        2    1.9010
                                                1    1.9540        2    1.9847
                                                1    3.2875        2    3.4078
                                                1    3.4570        2    3.4599
                                                1    3.4626        1    3.5623
                                                2    3.7277        2    4.3023
                                                2    4.3185        2    4.3343
                                                2    4.3543
                             O     shell        1    1.8729        2    1.8801
                                                1    1.9097        2    1.9306
                                                1    3.3313        1    3.3955
                                                2    3.4147        2    3.4351
                                                1    3.4780        1    3.6613
                                                2    3.7806        2    4.2648
                                                1    4.3293        2    4.3717
                                                2    4.3875        2    4.3959
                             Li    core         1    2.4052        1    2.6373
                                                2    2.7422        2    2.8401
                                                1    3.6524        2    3.7333
                                                2    3.8869        2    4.3004
--------------------------------------------------------------------------------
       9   Tc    core        Tc    core         2    2.8553        2    2.9182
                                                4    3.3868
                             Tc    shell        2    2.8553        2    2.9200
                                                2    3.3853        2    3.3861
                             O     core         1    1.8603        2    1.9010
                                                1    1.9540        2    1.9847
                                                1    3.2875        2    3.4078
                                                1    3.4570        2    3.4599
                                                1    3.4626        1    3.5623
                                                2    3.7277        2    4.3023
                                                2    4.3185        2    4.3343
                                                2    4.3543
                             O     shell        1    1.8729        2    1.8801
                                                1    1.9097        2    1.9306
                                                1    3.3313        1    3.3955
                                                2    3.4147        2    3.4351
                                                1    3.4780        1    3.6613
                                                2    3.7806        2    4.2648
                                                1    4.3293        2    4.3717
                                                2    4.3875        2    4.3959
                             Li    core         1    2.4052        1    2.6373
                                                2    2.7422        2    2.8401
                                                1    3.6524        2    3.7333
                                                2    3.8869        2    4.3004
--------------------------------------------------------------------------------
      10   Tc    core        Tc    core         2    2.8553        2    2.9182
                                                4    3.3868
                             Tc    shell        2    2.8553        2    2.9200
                                                2    3.3853        2    3.3861
                             O     core         1    1.8603        2    1.9010
                                                1    1.9540        2    1.9847
                                                1    3.2875        2    3.4078
                                                1    3.4570        2    3.4599
                                                1    3.4626        1    3.5623
                                                2    3.7277        2    4.3023
                                                2    4.3185        2    4.3343
                                                2    4.3543
                             O     shell        1    1.8729        2    1.8801
                                                1    1.9097        2    1.9306
                                                1    3.3313        1    3.3955
                                                2    3.4147        2    3.4351
                                                1    3.4780        1    3.6613
                                                2    3.7806        2    4.2648
                                                1    4.3293        2    4.3717
                                                2    4.3875        2    4.3959
                             Li    core         1    2.4052        1    2.6373
                                                2    2.7422        2    2.8401
                                                1    3.6524        2    3.7333
                                                2    3.8869        2    4.3004
--------------------------------------------------------------------------------
      11   Tc    core        Tc    core         2    2.8553        2    2.9182
                                                4    3.3868
                             Tc    shell        2    2.8553        2    2.9200
                                                2    3.3853        2    3.3861
                             O     core         1    1.8603        2    1.9010
                                                1    1.9540        2    1.9847
                                                1    3.2875        2    3.4078
                                                1    3.4570        2    3.4599
                                                1    3.4626        1    3.5623
                                                2    3.7277        2    4.3023
                                                2    4.3185        2    4.3343
                                                2    4.3543
                             O     shell        1    1.8729        2    1.8801
                                                1    1.9097        2    1.9306
                                                1    3.3313        1    3.3955
                                                2    3.4147        2    3.4351
                                                1    3.4780        1    3.6613
                                                2    3.7806        2    4.2648
                                                1    4.3293        2    4.3717
                                                2    4.3875        2    4.3959
                             Li    core         1    2.4052        1    2.6373
                                                2    2.7422        2    2.8401
                                                1    3.6524        2    3.7333
                                                2    3.8869        2    4.3004
--------------------------------------------------------------------------------
      12   Tc    core        Tc    core         2    2.8553        2    2.9182
                                                4    3.3868
                             Tc    shell        2    2.8553        2    2.9200
                                                2    3.3853        2    3.3861
                             O     core         1    1.8603        2    1.9010
                                                1    1.9540        2    1.9847
                                                1    3.2875        2    3.4078
                                                1    3.4570        2    3.4599
                                                1    3.4626        1    3.5623
                                                2    3.7277        2    4.3023
                                                2    4.3185        2    4.3343
                                                2    4.3543
                             O     shell        1    1.8729        2    1.8801
                                                1    1.9097        2    1.9306
                                                1    3.3313        1    3.3955
                                                2    3.4147        2    3.4351
                                                1    3.4780        1    3.6613
                                                2    3.7806        2    4.2648
                                                1    4.3293        2    4.3717
                                                2    4.3875        2    4.3959
                             Li    core         1    2.4052        1    2.6373
                                                2    2.7422        2    2.8401
                                                1    3.6524        2    3.7333
                                                2    3.8869        2    4.3004
--------------------------------------------------------------------------------
      13   Tc    core        Tc    core         2    2.8553        2    2.9182
                                                4    3.3868
                             Tc    shell        2    2.8553        2    2.9200
                                                2    3.3853        2    3.3861
                             O     core         1    1.8603        2    1.9010
                                                1    1.9540        2    1.9847
                                                1    3.2875        2    3.4078
                                                1    3.4570        2    3.4599
                                                1    3.4626        1    3.5623
                                                2    3.7277        2    4.3023
                                                2    4.3185        2    4.3343
                                                2    4.3543
                             O     shell        1    1.8729        2    1.8801
                                                1    1.9097        2    1.9306
                                                1    3.3313        1    3.3955
                                                2    3.4147        2    3.4351
                                                1    3.4780        1    3.6613
                                                2    3.7806        2    4.2648
                                                1    4.3293        2    4.3717
                                                2    4.3875        2    4.3959
                             Li    core         1    2.4052        1    2.6373
                                                2    2.7422        2    2.8401
                                                1    3.6524        2    3.7333
                                                2    3.8869        2    4.3004
--------------------------------------------------------------------------------
      14   Tc    core        Tc    core         2    2.8553        2    2.9182
                                                4    3.3868
                             Tc    shell        2    2.8553        2    2.9200
                                                2    3.3853        2    3.3861
                             O     core         1    1.8603        2    1.9010
                                                1    1.9540        2    1.9847
                                                1    3.2875        2    3.4078
                                                1    3.4570        2    3.4599
                                                1    3.4626        1    3.5623
                                                2    3.7277        2    4.3023
                                                2    4.3185        2    4.3343
                                                2    4.3543
                             O     shell        1    1.8729        2    1.8801
                                                1    1.9097        2    1.9306
                                                1    3.3313        1    3.3955
                                                2    3.4147        2    3.4351
                                                1    3.4780        1    3.6613
                                                2    3.7806        2    4.2648
                                                1    4.3293        2    4.3717
                                                2    4.3875        2    4.3959
                             Li    core         1    2.4052        1    2.6373
                                                2    2.7422        2    2.8401
                                                1    3.6524        2    3.7333
                                                2    3.8869        2    4.3004
--------------------------------------------------------------------------------
      15   Tc    core        Tc    core         2    2.8553        2    2.9182
                                                4    3.3868
                             Tc    shell        2    2.8553        2    2.9200
                                                2    3.3853        2    3.3861
                             O     core         1    1.8603        2    1.9010
                                                1    1.9540        2    1.9847
                                                1    3.2875        2    3.4078
                                                1    3.4570        2    3.4599
                                                1    3.4626        1    3.5623
                                                2    3.7277        2    4.3023
                                                2    4.3185        2    4.3343
                                                2    4.3543
                             O     shell        1    1.8729        2    1.8801
                                                1    1.9097        2    1.9306
                                                1    3.3313        1    3.3955
                                                2    3.4147        2    3.4351
                                                1    3.4780        1    3.6613
                                                2    3.7806        2    4.2648
                                                1    4.3293        2    4.3717
                                                2    4.3875        2    4.3959
                             Li    core         1    2.4052        1    2.6373
                                                2    2.7422        2    2.8401
                                                1    3.6524        2    3.7333
                                                2    3.8869        2    4.3004
--------------------------------------------------------------------------------
      16   Tc    core        Tc    core         2    2.8553        2    2.9182
                                                4    3.3868
                             Tc    shell        2    2.8553        2    2.9200
                                                2    3.3853        2    3.3861
                             O     core         1    1.8603        2    1.9010
                                                1    1.9540        2    1.9847
                                                1    3.2875        2    3.4078
                                                1    3.4570        2    3.4599
                                                1    3.4626        1    3.5623
                                                2    3.7277        2    4.3023
                                                2    4.3185        2    4.3343
                                                2    4.3543
                             O     shell        1    1.8729        2    1.8801
                                                1    1.9097        2    1.9306
                                                1    3.3313        1    3.3955
                                                2    3.4147        2    3.4351
                                                1    3.4780        1    3.6613
                                                2    3.7806        2    4.2648
                                                1    4.3293        2    4.3717
                                                2    4.3875        2    4.3959
                             Li    core         1    2.4052        1    2.6373
                                                2    2.7422        2    2.8401
                                                1    3.6524        2    3.7333
                                                2    3.8869        2    4.3004
--------------------------------------------------------------------------------
      17   Tc    core        Tc    core         2    2.8553        2    2.9182
                                                4    3.3868
                             Tc    shell        2    2.8553        2    2.9200
                                                2    3.3853        2    3.3861
                             O     core         1    1.8603        2    1.9010
                                                1    1.9540        2    1.9847
                                                1    3.2875        2    3.4078
                                                1    3.4570        2    3.4599
                                                1    3.4626        1    3.5623
                                                2    3.7277        2    4.3023
                                                2    4.3185        2    4.3343
                                                2    4.3543
                             O     shell        1    1.8729        2    1.8801
                                                1    1.9097        2    1.9306
                                                1    3.3313        1    3.3955
                                                2    3.4147        2    3.4351
                                                1    3.4780        1    3.6613
                                                2    3.7806        2    4.2648
                                                1    4.3293        2    4.3717
                                                2    4.3875        2    4.3959
                             Li    core         1    2.4052        1    2.6373
                                                2    2.7422        2    2.8401
                                                1    3.6524        2    3.7333
                                                2    3.8869        2    4.3004
--------------------------------------------------------------------------------
      18   Tc    core        Tc    core         2    2.8553        2    2.9182
                                                4    3.3868
                             Tc    shell        2    2.8553        2    2.9200
                                                2    3.3853        2    3.3861
                             O     core         1    1.8603        2    1.9010
                                                1    1.9540        2    1.9847
                                                1    3.2875        2    3.4078
                                                1    3.4570        2    3.4599
                                                1    3.4626        1    3.5623
                                                2    3.7277        2    4.3023
                                                2    4.3185        2    4.3343
                                                2    4.3543
                             O     shell        1    1.8729        2    1.8801
                                                1    1.9097        2    1.9306
                                                1    3.3313        1    3.3955
                                                2    3.4147        2    3.4351
                                                1    3.4780        1    3.6613
                                                2    3.7806        2    4.2648
                                                1    4.3293        2    4.3717
                                                2    4.3875        2    4.3959
                             Li    core         1    2.4052        1    2.6373
                                                2    2.7422        2    2.8401
                                                1    3.6524        2    3.7333
                                                2    3.8869        2    4.3004
--------------------------------------------------------------------------------
      19   Tc    core        Tc    core         2    2.8553        2    2.9182
                                                4    3.3868
                             Tc    shell        2    2.8553        2    2.9200
                                                2    3.3853        2    3.3861
                             O     core         1    1.8603        2    1.9010
                                                1    1.9540        2    1.9847
                                                1    3.2875        2    3.4078
                                                1    3.4570        2    3.4599
                                                1    3.4626        1    3.5623
                                                2    3.7277        2    4.3023
                                                2    4.3185        2    4.3343
                                                2    4.3543
                             O     shell        1    1.8729        2    1.8801
                                                1    1.9097        2    1.9306
                                                1    3.3313        1    3.3955
                                                2    3.4147        2    3.4351
                                                1    3.4780        1    3.6613
                                                2    3.7806        2    4.2648
                                                1    4.3293        2    4.3717
                                                2    4.3875        2    4.3959
                             Li    core         1    2.4052        1    2.6373
                                                2    2.7422        2    2.8401
                                                1    3.6524        2    3.7333
                                                2    3.8869        2    4.3004
--------------------------------------------------------------------------------
      20   Tc    core        Tc    core         2    2.8553        2    2.9182
                                                4    3.3868
                             Tc    shell        2    2.8553        2    2.9200
                                                2    3.3853        2    3.3861
                             O     core         1    1.8603        2    1.9010
                                                1    1.9540        2    1.9847
                                                1    3.2875        2    3.4078
                                                1    3.4570        2    3.4599
                                                1    3.4626        1    3.5623
                                                2    3.7277        2    4.3023
                                                2    4.3185        2    4.3343
                                                2    4.3543
                             O     shell        1    1.8729        2    1.8801
                                                1    1.9097        2    1.9306
                                                1    3.3313        1    3.3955
                                                2    3.4147        2    3.4351
                                                1    3.4780        1    3.6613
                                                2    3.7806        2    4.2648
                                                1    4.3293        2    4.3717
                                                2    4.3875        2    4.3959
                             Li    core         1    2.4052        1    2.6373
                                                2    2.7422        2    2.8401
                                                1    3.6524        2    3.7333
                                                2    3.8869        2    4.3004
--------------------------------------------------------------------------------
      21   Tc    core        Tc    core         2    2.8553        2    2.9182
                                                4    3.3868
                             Tc    shell        2    2.8553        2    2.9200
                                                2    3.3853        2    3.3861
                             O     core         1    1.8603        2    1.9010
                                                1    1.9540        2    1.9847
                                                1    3.2875        2    3.4078
                                                1    3.4570        2    3.4599
                                                1    3.4626        1    3.5623
                                                2    3.7277        2    4.3023
                                                2    4.3185        2    4.3343
                                                2    4.3543
                             O     shell        1    1.8729        2    1.8801
                                                1    1.9097        2    1.9306
                                                1    3.3313        1    3.3955
                                                2    3.4147        2    3.4351
                                                1    3.4780        1    3.6613
                                                2    3.7806        2    4.2648
                                                1    4.3293        2    4.3717
                                                2    4.3875        2    4.3959
                             Li    core         1    2.4052        1    2.6373
                                                2    2.7422        2    2.8401
                                                1    3.6524        2    3.7333
                                                2    3.8869        2    4.3004
--------------------------------------------------------------------------------
      22   Tc    core        Tc    core         2    2.8553        2    2.9182
                                                4    3.3868
                             Tc    shell        2    2.8553        2    2.9200
                                                2    3.3853        2    3.3861
                             O     core         1    1.8603        2    1.9010
                                                1    1.9540        2    1.9847
                                                1    3.2875        2    3.4078
                                                1    3.4570        2    3.4599
                                                1    3.4626        1    3.5623
                                                2    3.7277        2    4.3023
                                                2    4.3185        2    4.3343
                                                2    4.3543
                             O     shell        1    1.8729        2    1.8801
                                                1    1.9097        2    1.9306
                                                1    3.3313        1    3.3955
                                                2    3.4147        2    3.4351
                                                1    3.4780        1    3.6613
                                                2    3.7806        2    4.2648
                                                1    4.3293        2    4.3717
                                                2    4.3875        2    4.3959
                             Li    core         1    2.4052        1    2.6373
                                                2    2.7422        2    2.8401
                                                1    3.6524        2    3.7333
                                                2    3.8869        2    4.3004
--------------------------------------------------------------------------------
      23   Tc    core        Tc    core         2    2.8553        2    2.9182
                                                4    3.3868
                             Tc    shell        2    2.8553        2    2.9200
                                                2    3.3853        2    3.3861
                             O     core         1    1.8603        2    1.9010
                                                1    1.9540        2    1.9847
                                                1    3.2875        2    3.4078
                                                1    3.4570        2    3.4599
                                                1    3.4626        1    3.5623
                                                2    3.7277        2    4.3023
                                                2    4.3185        2    4.3343
                                                2    4.3543
                             O     shell        1    1.8729        2    1.8801
                                                1    1.9097        2    1.9306
                                                1    3.3313        1    3.3955
                                                2    3.4147        2    3.4351
                                                1    3.4780        1    3.6613
                                                2    3.7806        2    4.2648
                                                1    4.3293        2    4.3717
                                                2    4.3875        2    4.3959
                             Li    core         1    2.4052        1    2.6373
                                                2    2.7422        2    2.8401
                                                1    3.6524        2    3.7333
                                                2    3.8869        2    4.3004
--------------------------------------------------------------------------------
      24   Tc    core        Tc    core         2    2.8553        2    2.9182
                                                4    3.3868
                             Tc    shell        2    2.8553        2    2.9200
                                                2    3.3853        2    3.3861
                             O     core         1    1.8603        2    1.9010
                                                1    1.9540        2    1.9847
                                                1    3.2875        2    3.4078
                                                1    3.4570        2    3.4599
                                                1    3.4626        1    3.5623
                                                2    3.7277        2    4.3023
                                                2    4.3185        2    4.3343
                                                2    4.3543
                             O     shell        1    1.8729        2    1.8801
                                                1    1.9097        2    1.9306
                                                1    3.3313        1    3.3955
                                                2    3.4147        2    3.4351
                                                1    3.4780        1    3.6613
                                                2    3.7806        2    4.2648
                                                1    4.3293        2    4.3717
                                                2    4.3875        2    4.3959
                             Li    core         1    2.4052        1    2.6373
                                                2    2.7422        2    2.8401
                                                1    3.6524        2    3.7333
                                                2    3.8869        2    4.3004
--------------------------------------------------------------------------------
      25   Li    core        Tc    core         1    2.4052        1    2.6373
                                                2    2.7422        2    2.8401
                                                1    3.6524        2    3.7333
                                                2    3.8869        2    4.3004
                             Tc    shell        1    2.4032        1    2.6385
                                                2    2.7430        2    2.8399
                                                1    3.6540        2    3.7320
                                                2    3.8877        2    4.2987
                             O     core         1    1.7574        2    1.9084
                                                1    2.0819        2    2.1805
                                                1    3.0169        1    3.1740
                                                2    3.3527        1    3.4968
                                                2    3.5337        2    3.8776
                                                2    4.0283        1    4.0292
                                                2    4.1460        2    4.1538
                                                2    4.1904        2    4.2693
                                                2    4.3709
                             O     shell        1    1.8326        2    1.9685
                                                1    2.0204        2    2.2318
                                                1    3.0755        1    3.0807
                                                2    3.3928        1    3.4954
                                                2    3.4978        2    3.8318
                                                2    3.9669        1    4.0256
                                                2    4.1118        2    4.1160
                                                2    4.1966        2    4.2004
                                                2    4.3690
                             Li    core         2    2.2633        2    2.8553
                                                4    3.9587
--------------------------------------------------------------------------------
      26   Li    core        Tc    core         1    2.4052        1    2.6373
                                                2    2.7422        2    2.8401
                                                1    3.6524        2    3.7333
                                                2    3.8869        2    4.3004
                             Tc    shell        1    2.4032        1    2.6385
                                                2    2.7430        2    2.8399
                                                1    3.6540        2    3.7320
                                                2    3.8877        2    4.2987
                             O     core         1    1.7574        2    1.9084
                                                1    2.0819        2    2.1805
                                                1    3.0169        1    3.1740
                                                2    3.3527        1    3.4968
                                                2    3.5337        2    3.8776
                                                2    4.0283        1    4.0292
                                                2    4.1460        2    4.1538
                                                2    4.1904        2    4.2693
                                                2    4.3709
                             O     shell        1    1.8326        2    1.9685
                                                1    2.0204        2    2.2318
                                                1    3.0755        1    3.0807
                                                2    3.3928        1    3.4954
                                                2    3.4978        2    3.8318
                                                2    3.9669        1    4.0256
                                                2    4.1118        2    4.1160
                                                2    4.1966        2    4.2004
                                                2    4.3690
                             Li    core         2    2.2633        2    2.8553
                                                4    3.9587
--------------------------------------------------------------------------------
      27   Li    core        Tc    core         1    2.4052        1    2.6373
                                                2    2.7422        2    2.8401
                                                1    3.6524        2    3.7333
                                                2    3.8869        2    4.3004
                             Tc    shell        1    2.4032        1    2.6385
                                                2    2.7430        2    2.8399
                                                1    3.6540        2    3.7320
                                                2    3.8877        2    4.2987
                             O     core         1    1.7574        2    1.9084
                                                1    2.0819        2    2.1805
                                                1    3.0169        1    3.1740
                                                2    3.3527        1    3.4968
                                                2    3.5337        2    3.8776
                                                2    4.0283        1    4.0292
                                                2    4.1460        2    4.1538
                                                2    4.1904        2    4.2693
                                                2    4.3709
                             O     shell        1    1.8326        2    1.9685
                                                1    2.0204        2    2.2318
                                                1    3.0755        1    3.0807
                                                2    3.3928        1    3.4954
                                                2    3.4978        2    3.8318
                                                2    3.9669        1    4.0256
                                                2    4.1118        2    4.1160
                                                2    4.1966        2    4.2004
                                                2    4.3690
                             Li    core         2    2.2633        2    2.8553
                                                4    3.9587
--------------------------------------------------------------------------------
      28   Li    core        Tc    core         1    2.4052        1    2.6373
                                                2    2.7422        2    2.8401
                                                1    3.6524        2    3.7333
                                                2    3.8869        2    4.3004
                             Tc    shell        1    2.4032        1    2.6385
                                                2    2.7430        2    2.8399
                                                1    3.6540        2    3.7320
                                                2    3.8877        2    4.2987
                             O     core         1    1.7574        2    1.9084
                                                1    2.0819        2    2.1805
                                                1    3.0169        1    3.1740
                                                2    3.3527        1    3.4968
                                                2    3.5337        2    3.8776
                                                2    4.0283        1    4.0292
                                                2    4.1460        2    4.1538
                                                2    4.1904        2    4.2693
                                                2    4.3709
                             O     shell        1    1.8326        2    1.9685
                                                1    2.0204        2    2.2318
                                                1    3.0755        1    3.0807
                                                2    3.3928        1    3.4954
                                                2    3.4978        2    3.8318
                                                2    3.9669        1    4.0256
                                                2    4.1118        2    4.1160
                                                2    4.1966        2    4.2004
                                                2    4.3690
                             Li    core         2    2.2633        2    2.8553
                                                4    3.9587
--------------------------------------------------------------------------------
      29   Li    core        Tc    core         1    2.4052        1    2.6373
                                                2    2.7422        2    2.8401
                                                1    3.6524        2    3.7333
                                                2    3.8869        2    4.3004
                             Tc    shell        1    2.4032        1    2.6385
                                                2    2.7430        2    2.8399
                                                1    3.6540        2    3.7320
                                                2    3.8877        2    4.2987
                             O     core         1    1.7574        2    1.9084
                                                1    2.0819        2    2.1805
                                                1    3.0169        1    3.1740
                                                2    3.3527        1    3.4968
                                                2    3.5337        2    3.8776
                                                2    4.0283        1    4.0292
                                                2    4.1460        2    4.1538
                                                2    4.1904        2    4.2693
                                                2    4.3709
                             O     shell        1    1.8326        2    1.9685
                                                1    2.0204        2    2.2318
                                                1    3.0755        1    3.0807
                                                2    3.3928        1    3.4954
                                                2    3.4978        2    3.8318
                                                2    3.9669        1    4.0256
                                                2    4.1118        2    4.1160
                                                2    4.1966        2    4.2004
                                                2    4.3690
                             Li    core         2    2.2633        2    2.8553
                                                4    3.9587
--------------------------------------------------------------------------------
      30   Li    core        Tc    core         1    2.4052        1    2.6373
                                                2    2.7422        2    2.8401
                                                1    3.6524        2    3.7333
                                                2    3.8869        2    4.3004
                             Tc    shell        1    2.4032        1    2.6385
                                                2    2.7430        2    2.8399
                                                1    3.6540        2    3.7320
                                                2    3.8877        2    4.2987
                             O     core         1    1.7574        2    1.9084
                                                1    2.0819        2    2.1805
                                                1    3.0169        1    3.1740
                                                2    3.3527        1    3.4968
                                                2    3.5337        2    3.8776
                                                2    4.0283        1    4.0292
                                                2    4.1460        2    4.1538
                                                2    4.1904        2    4.2693
                                                2    4.3709
                             O     shell        1    1.8326        2    1.9685
                                                1    2.0204        2    2.2318
                                                1    3.0755        1    3.0807
                                                2    3.3928        1    3.4954
                                                2    3.4978        2    3.8318
                                                2    3.9669        1    4.0256
                                                2    4.1118        2    4.1160
                                                2    4.1966        2    4.2004
                                                2    4.3690
                             Li    core         2    2.2633        2    2.8553
                                                4    3.9587
--------------------------------------------------------------------------------
      31   Li    core        Tc    core         1    2.4052        1    2.6373
                                                2    2.7422        2    2.8401
                                                1    3.6524        2    3.7333
                                                2    3.8869        2    4.3004
                             Tc    shell        1    2.4032        1    2.6385
                                                2    2.7430        2    2.8399
                                                1    3.6540        2    3.7320
                                                2    3.8877        2    4.2987
                             O     core         1    1.7574        2    1.9084
                                                1    2.0819        2    2.1805
                                                1    3.0169        1    3.1740
                                                2    3.3527        1    3.4968
                                                2    3.5337        2    3.8776
                                                2    4.0283        1    4.0292
                                                2    4.1460        2    4.1538
                                                2    4.1904        2    4.2693
                                                2    4.3709
                             O     shell        1    1.8326        2    1.9685
                                                1    2.0204        2    2.2318
                                                1    3.0755        1    3.0807
                                                2    3.3928        1    3.4954
                                                2    3.4978        2    3.8318
                                                2    3.9669        1    4.0256
                                                2    4.1118        2    4.1160
                                                2    4.1966        2    4.2004
                                                2    4.3690
                             Li    core         2    2.2633        2    2.8553
                                                4    3.9587
--------------------------------------------------------------------------------
      32   Li    core        Tc    core         1    2.4052        1    2.6373
                                                2    2.7422        2    2.8401
                                                1    3.6524        2    3.7333
                                                2    3.8869        2    4.3004
                             Tc    shell        1    2.4032        1    2.6385
                                                2    2.7430        2    2.8399
                                                1    3.6540        2    3.7320
                                                2    3.8877        2    4.2987
                             O     core         1    1.7574        2    1.9084
                                                1    2.0819        2    2.1805
                                                1    3.0169        1    3.1740
[...]
            z      -0.0000     -0.0000     -2.0938
-------------------------------------------------------------------------------
   78 O     x      -1.9177      0.4182     -0.0000
            y       0.5343     -1.7725      0.0000
            z      -0.0000      0.0000     -2.0938
-------------------------------------------------------------------------------
   79 O     x      -1.9177      0.4182      0.0000
            y       0.5343     -1.7725     -0.0000
            z       0.0000     -0.0000     -2.0938
-------------------------------------------------------------------------------
   80 O     x      -1.9177     -0.4182      0.0000
            y      -0.5343     -1.7725      0.0000
            z       0.0000      0.0000     -2.0938
-------------------------------------------------------------------------------
   81 O     x      -1.9759      0.1023      0.0000
            y       0.0264     -1.6706     -0.0000
            z       0.0000     -0.0000     -2.2597
-------------------------------------------------------------------------------
   82 O     x      -1.9759     -0.1023      0.0000
            y      -0.0264     -1.6706      0.0000
            z       0.0000      0.0000     -2.2597
-------------------------------------------------------------------------------
   83 O     x      -1.9759     -0.1023     -0.0000
            y      -0.0264     -1.6706     -0.0000
            z      -0.0000     -0.0000     -2.2597
-------------------------------------------------------------------------------
   84 O     x      -1.9759      0.1023     -0.0000
            y       0.0264     -1.6706      0.0000
            z      -0.0000      0.0000     -2.2597
-------------------------------------------------------------------------------
   85 O     x      -1.9177     -0.4182     -0.0000
            y      -0.5343     -1.7725     -0.0000
            z      -0.0000     -0.0000     -2.0938
-------------------------------------------------------------------------------
   86 O     x      -1.9177      0.4182     -0.0000
            y       0.5343     -1.7725      0.0000
            z      -0.0000      0.0000     -2.0938
-------------------------------------------------------------------------------
   87 O     x      -1.9177      0.4182      0.0000
            y       0.5343     -1.7725     -0.0000
            z       0.0000     -0.0000     -2.0938
-------------------------------------------------------------------------------
   88 O     x      -1.9177     -0.4182      0.0000
            y      -0.5343     -1.7725      0.0000
            z       0.0000      0.0000     -2.0938
-------------------------------------------------------------------------------
   89 O     x      -1.9759      0.1023      0.0000
            y       0.0264     -1.6706     -0.0000
            z       0.0000     -0.0000     -2.2597
-------------------------------------------------------------------------------
   90 O     x      -1.9759     -0.1023      0.0000
            y      -0.0264     -1.6706      0.0000
            z       0.0000      0.0000     -2.2597
-------------------------------------------------------------------------------
   91 O     x      -1.9759     -0.1023     -0.0000
            y      -0.0264     -1.6706     -0.0000
            z      -0.0000     -0.0000     -2.2597
-------------------------------------------------------------------------------
   92 O     x      -1.9759      0.1023     -0.0000
            y       0.0264     -1.6706      0.0000
            z      -0.0000      0.0000     -2.2597
-------------------------------------------------------------------------------
   93 O     x      -1.9177     -0.4182     -0.0000
            y      -0.5343     -1.7725     -0.0000
            z      -0.0000     -0.0000     -2.0938
-------------------------------------------------------------------------------
   94 O     x      -1.9177      0.4182     -0.0000
            y       0.5343     -1.7725      0.0000
            z      -0.0000      0.0000     -2.0938
-------------------------------------------------------------------------------
   95 O     x      -1.9177      0.4182      0.0000
            y       0.5343     -1.7725     -0.0000
            z       0.0000     -0.0000     -2.0938
-------------------------------------------------------------------------------
   96 O     x      -1.9177     -0.4182      0.0000
            y      -0.5343     -1.7725      0.0000
            z       0.0000      0.0000     -2.0938
-------------------------------------------------------------------------------




  Elastic Constant Matrix: (Units=GPa)

-------------------------------------------------------------------------------
  Indices      1         2         3         4         5         6    
-------------------------------------------------------------------------------
       1    394.8361   71.7423   96.4030    0.0000   -0.0000    0.0000
       2     71.7423  409.1252  125.8241    0.0000    0.0000   -0.0000
       3     96.4030  125.8241  417.3499    0.0000    0.0000   -0.0000
       4      0.0000    0.0000    0.0000   67.2327   -0.0000    0.0000
       5     -0.0000    0.0000    0.0000   -0.0000   63.3325    0.0000
       6      0.0000   -0.0000   -0.0000    0.0000    0.0000   91.6207
-------------------------------------------------------------------------------


  Elastic Compliance Matrix: (Units=1/GPa)

-------------------------------------------------------------------------------
  Indices      1         2         3         4         5         6    
-------------------------------------------------------------------------------
       1    0.002720 -0.000313 -0.000534 -0.000000  0.000000 -0.000000
       2   -0.000313  0.002730 -0.000751  0.000000 -0.000000  0.000000
       3   -0.000534 -0.000751  0.002746 -0.000000 -0.000000  0.000000
       4   -0.000000  0.000000 -0.000000  0.014874  0.000000 -0.000000
       5    0.000000 -0.000000 -0.000000  0.000000  0.015790 -0.000000
       6   -0.000000  0.000000  0.000000 -0.000000 -0.000000  0.010915
-------------------------------------------------------------------------------

  Mechanical properties :

-------------------------------------------------------------------------------
  Convention :                    Reuss         Voigt         Hill
-------------------------------------------------------------------------------
  Bulk  Modulus (GPa)     =     199.97534     201.02780     200.50157
  Shear Modulus (GPa)     =      91.51556     106.25998      98.88777
-------------------------------------------------------------------------------
  Velocity S-wave (km/s)  =       3.82362       4.12014       3.97465
  Velocity P-wave (km/s)  =       7.17221       7.39928       7.28663
-------------------------------------------------------------------------------
  Compressibility (1/GPa) =    0.00500062
-------------------------------------------------------------------------------
  Stress axis :                     x             y             z
-------------------------------------------------------------------------------
  Youngs Moduli (GPa)     =     367.66112     366.30246     364.19641
-------------------------------------------------------------------------------
  Poissons Ratio (x)      =                     0.11455       0.19447
  Poissons Ratio (y)      =       0.11498                     0.27344
  Poissons Ratio (z)      =       0.19632       0.27502
-------------------------------------------------------------------------------


  Piezoelectric Strain Matrix: (Units=C/m**2)

-------------------------------------------------------------------------------
  Indices      1         2         3         4         5         6    
-------------------------------------------------------------------------------
       x     0.00000  -0.00000  -0.00000   0.00000   0.00000   0.00000
       y    -0.00000  -0.00000   0.00000  -0.00000  -0.00000  -0.00000
       z     0.00000  -0.00000   0.00000   0.00000  -0.00000   0.00000
-------------------------------------------------------------------------------


  Piezoelectric Stress Matrix: (Units=10**-11 C/N)

-------------------------------------------------------------------------------
  Indices      1         2         3         4         5         6    
-------------------------------------------------------------------------------
       x     0.00000  -0.00000  -0.00000   0.00000   0.00000   0.00000
       y    -0.00000  -0.00000   0.00000  -0.00000  -0.00000  -0.00000
       z    -0.00000  -0.00000   0.00000   0.00000  -0.00000   0.00000
-------------------------------------------------------------------------------


  Static dielectric constant tensor : 

-------------------------------------------------------------------------------
              x         y         z
-------------------------------------------------------------------------------
       x    22.32072   0.00000   0.00000
       y     0.00000  13.49127  -0.00000
       z     0.00000  -0.00000  44.70671
--------------------------------------------------------------------------------

  High frequency dielectric constant tensor : 

-------------------------------------------------------------------------------
              x         y         z
-------------------------------------------------------------------------------
       x     4.73703   0.00000   0.00000
       y     0.00000   4.37767  -0.00000
       z     0.00000  -0.00000   5.02526
-------------------------------------------------------------------------------

  Static refractive indices : 

-------------------------------------------------------------------------------
    1 =    3.67305      2 =    4.72448      3 =    6.68631
-------------------------------------------------------------------------------

  High frequency refractive indices : 

-------------------------------------------------------------------------------
    1 =    2.09229      2 =    2.17647      3 =    2.24171
-------------------------------------------------------------------------------


  Phonon Calculation : 

  Number of k points for this configuration =        1

--------------------------------------------------------------------------------
  K point      1 =   0.000000  0.000000  0.000000  Weight =    1.000
--------------------------------------------------------------------------------

  Frequencies (cm-1) [NB: Negative implies an imaginary mode]:

   -0.00   -0.00    0.00   19.15   70.41   70.41   70.54   70.54   83.71
   83.71   89.63   90.14   97.31   97.31   97.31   97.31  100.82  102.22
  102.22  108.52  108.52  114.25  114.25  120.60  120.60  120.60  120.60
  124.46  125.03  125.03  129.59  129.59  129.59  129.59  134.46  134.46
  140.90  140.90  144.55  146.07  146.07  147.50  147.50  147.50  147.50
  151.55  159.04  159.04  159.69  161.78  161.78  163.28  171.07  171.07
  177.59  177.59  181.59  181.59  186.40  186.40  186.40  186.40  188.39
  189.51  189.51  190.95  190.95  193.31  193.31  196.23  203.56  203.56
  203.56  203.56  212.49  212.49  225.64  227.87  227.87  233.90  234.64
  237.12  242.03  242.03  242.43  243.28  243.93  243.93  243.93  243.93
  251.83  251.83  252.24  255.55  255.55  256.44  256.44  263.39  263.39
  263.39  263.39  265.76  265.76  266.55  266.55  269.45  269.45  278.10
  278.10  279.96  281.84  281.84  281.84  281.84  283.15  283.15  283.64
  287.71  287.71  288.63  288.63  290.90  290.90  293.16  293.16  293.16
  293.16  304.38  304.38  304.38  304.38  306.60  308.04  308.04  312.87
  312.87  313.27  313.71  316.34  319.59  319.59  319.59  319.59  323.03
  323.03  329.14  329.14  330.61  330.61  332.92  332.92  333.99  334.77
  341.15  341.15  341.15  341.15  343.15  343.15  345.36  345.36  348.05
  348.05  351.72  355.05  355.05  355.05  355.05  358.69  360.81  363.04
  363.04  365.18  365.33  365.33  370.08  370.08  373.31  373.31  373.57
  373.57  373.57  373.57  381.34  381.34  381.34  381.34  383.55  383.55
  386.09  394.17  394.62  394.62  401.44  401.44  401.44  401.44  402.98
  402.98  403.65  403.65  408.13  408.13  414.77  414.77  420.78  420.78
  420.78  420.78  425.82  425.82  426.58  426.58  427.17  427.17  429.69
  434.91  434.91  434.91  434.91  435.38  435.38  435.99  440.19  440.19
  440.59  440.59  441.35  442.78  443.27  443.27  444.00  445.23  445.23
  450.76  463.41  463.41  463.41  463.41  463.81  463.81  466.49  466.49
  472.69  472.69  472.69  472.69  478.80  478.80  480.49  480.49  480.57
  480.57  480.57  480.57  486.84  486.84  495.90  495.90  499.74  502.83
  504.30  504.30  506.52  575.92  575.92  590.01  590.01  607.40  611.38
  613.68  613.68  615.47  615.47  616.67  616.67  616.67  616.67  630.67
  630.67  640.58  640.58  640.58  640.58  659.95  667.63  667.63  672.81


--------------------------------------------------------------------------------
  Phonon properties (per mole of unit cells): Temperature =      0.000 K
--------------------------------------------------------------------------------
  Zero point energy             =        5.802709 eV
--------------------------------------------------------------------------------

  Phonon density of states : 

--------------------------------------------------------------------------------
 Frequency (cm-1) Density of States                                             
--------------------------------------------------------------------------------
    0.00000 |*****                                                         0.003
   10.51266 |*****                                                         0.003
   21.02531 |                                                              0.000
   31.53797 |                                                              0.000
   42.05062 |                                                              0.000
   52.56328 |                                                              0.000
   63.07593 |********************                                          0.014
   73.58859 |**********                                                    0.007
   84.10124 |**********                                                    0.007
   94.61390 |***********************************                           0.024
  105.12655 |********************                                          0.014
  115.63921 |***********************************                           0.024
  126.15186 |******************************                                0.021
  136.66452 |*************************                                     0.017
  147.17717 |*************************                                     0.017
  157.68983 |******************************                                0.021
  168.20248 |********************                                          0.014
  178.71514 |***********************************                           0.024
  189.22779 |***********************************                           0.024
  199.74045 |********************                                          0.014
  210.25310 |**********                                                    0.007
  220.76576 |***************                                               0.010
  231.27841 |***************                                               0.010
  241.79107 |*******************************************************       0.038
  252.30372 |********************                                          0.014
  262.81638 |**************************************************            0.035
  273.32903 |**************************************************            0.035
  283.84169 |**************************************************            0.035
  294.35434 |********************                                          0.014
  304.86700 |***********************************                           0.024
  315.37965 |***********************************                           0.024
  325.89231 |****************************************                      0.028
  336.40496 |****************************************                      0.028
  346.91762 |***********************************                           0.024
  357.43027 |***********************************                           0.024
  367.94293 |****************************************                      0.028
  378.45558 |***********************************                           0.024
  388.96824 |***************                                               0.010
  399.48089 |**************************************************            0.035
  409.99355 |**********                                                    0.007
  420.50620 |*******************************************************       0.038
  431.01886 |************************************************************  0.042
  441.53151 |***********************************                           0.024
  452.04417 |                                                              0.000
  462.55682 |************************************************************  0.042
  473.06948 |****************************************                      0.028
  483.58213 |**********                                                    0.007
  494.09479 |******************************                                0.021
  504.60744 |*****                                                         0.003
  515.12010 |                                                              0.000
  525.63275 |                                                              0.000
  536.14541 |                                                              0.000
  546.65806 |                                                              0.000
  557.17072 |                                                              0.000
  567.68337 |**********                                                    0.007
  578.19603 |                                                              0.000
  588.70868 |**********                                                    0.007
  599.22134 |*****                                                         0.003
  609.73399 |*********************************************                 0.031
  620.24665 |**********                                                    0.007
  630.75931 |********************                                          0.014
  641.27196 |                                                              0.000
  651.78462 |*****                                                         0.003
  662.29727 |***************                                               0.010
--------------------------------------------------------------------------------



  Time to end of optimisation =       4.4048 seconds


  Peak dynamic memory used =       3.48 MB 


  Timing analysis for GULP :

--------------------------------------------------------------------------------
  Task / Subroutine                                          Time (Seconds)
--------------------------------------------------------------------------------
  Calculation of reciprocal space energy and derivatives          0.3929
  Calculation of real space energy and derivatives                3.7156
  Calculation of phonons                                          0.2580
  Calculation and manipulation of Hessian matrix                  0.0042
  Calculation of matrix diagonalisation                           0.0136
  Calculation of matrix inversion                                 0.1159
  Global summation overhead                                       0.0427
--------------------------------------------------------------------------------
  Total CPU time                                                  4.4049
--------------------------------------------------------------------------------


  Dump file written as gulp.res
  CIF file written as cryst.cif


  Job Finished at 18:08.33 14th November   2023                               


