------------------------------------------------------------
          Invoking FHI-aims ...

          When using FHI-aims, please cite the following reference:

            Volker Blum, Ralf Gehrke, Felix Hanke, Paula Havu,
            Ville Havu, Xinguo Ren, Karsten Reuter, and Matthias Scheffler,
            'Ab Initio Molecular Simulations with Numeric Atom-Centered Orbitals',
            Computer Physics Communications 180, 2175-2196 (2009)

          In addition, many other developments in FHI-aims are likely important for
          your particular application. If so, please cite them. A partial list of references
          is written at the end of this file. Thank you for giving credit to the authors
          of these developments.

          For general information about FHI-aims please find us at

            https://fhi-aims.org

          Online tutorials can be found at

            https://fhi-aims-club.gitlab.io/tutorials/tutorials-overview/

          For any questions about FHI-aims, please visit our slack channel at

            https://fhi-aims.slack.com

          and our main development and support site at

            https://aims-git.rz-berlin.mpg.de .

          The latter site, in particular, has a wiki to collect information, as well
          as an issue tracker to log discussions, suggest improvements, and report issues
          or bugs. https://aims-git.rz-berlin.mpg.de is also the main development site
          of the project and all new and updated code versions can be obtained there.
          Please send an email to aims-coordinators@fhi-berlin.mpg.de and we will add
          you to these sites. They are for you and everyone is welcome there.

------------------------------------------------------------



  Date     :  20240827, Time     :  173249.911
  Time zero on CPU 1             :   0.409150000000000E+00  s.
  Internal wall clock time zero  :           494011969.911  s.

  FHI-aims created a unique identifier for this run for later identification
  aims_uuid : 67497266-3359-4987-A41F-7D841BC8C481

  Build configuration of the current instance of FHI-aims
  -------------------------------------------------------
  FHI-aims version      : 240627
  Commit number         : 81a9d1cc5
  CMake host system     : Linux-5.14.21-150400.24.46_12.0.70-cray_shasta_c
  CMake version         : 3.21.3
  Fortran compiler      : /opt/cray/pe/craype/2.7.19/bin/ftn (GNU) version 11.2.0
  Fortran compiler flags: -O2 -fallow-argument-mismatch -ffree-line-length-none
  C compiler            : /opt/cray/pe/craype/2.7.19/bin/cc (GNU) version 11.2.0
  C compiler flags      : -O2
  C++ compiler          : /opt/cray/pe/craype/2.7.19/bin/CC (GNU) version 11.2.0
  C++ compiler flags    : -O2
  HIP compiler          :
  HIP compiler flags    :
  HIP GPU arch          :
  Using MPI
  Using ScaLAPACK
  Using LibXC
  Using i-PI
  Using RLSY
  Linking against:

  Using      128 parallel tasks.
  Task        0 on host nid005460 reporting.
  Task        1 on host nid005460 reporting.
  Task        2 on host nid005460 reporting.
  Task        3 on host nid005460 reporting.
  Task        4 on host nid005460 reporting.
  Task        5 on host nid005460 reporting.
  Task        6 on host nid005460 reporting.
  Task        7 on host nid005460 reporting.
  Task        8 on host nid005460 reporting.
  Task        9 on host nid005460 reporting.
  Task       10 on host nid005460 reporting.
  Task       11 on host nid005460 reporting.
  Task       12 on host nid005460 reporting.
  Task       13 on host nid005460 reporting.
  Task       14 on host nid005460 reporting.
  Task       15 on host nid005460 reporting.
  Task       16 on host nid005460 reporting.
  Task       17 on host nid005460 reporting.
  Task       18 on host nid005460 reporting.
  Task       19 on host nid005460 reporting.
  Task       20 on host nid005460 reporting.
  Task       21 on host nid005460 reporting.
  Task       22 on host nid005460 reporting.
  Task       23 on host nid005460 reporting.
  Task       24 on host nid005460 reporting.
  Task       25 on host nid005460 reporting.
  Task       26 on host nid005460 reporting.
  Task       27 on host nid005460 reporting.
  Task       28 on host nid005460 reporting.
  Task       29 on host nid005460 reporting.
  Task       30 on host nid005460 reporting.
  Task       31 on host nid005460 reporting.
  Task       32 on host nid005460 reporting.
  Task       33 on host nid005460 reporting.
  Task       34 on host nid005460 reporting.
  Task       35 on host nid005460 reporting.
  Task       36 on host nid005460 reporting.
  Task       37 on host nid005460 reporting.
  Task       38 on host nid005460 reporting.
  Task       39 on host nid005460 reporting.
  Task       40 on host nid005460 reporting.
  Task       41 on host nid005460 reporting.
  Task       42 on host nid005460 reporting.
  Task       43 on host nid005460 reporting.
  Task       44 on host nid005460 reporting.
  Task       45 on host nid005460 reporting.
  Task       46 on host nid005460 reporting.
  Task       47 on host nid005460 reporting.
  Task       48 on host nid005460 reporting.
  Task       49 on host nid005460 reporting.
  Task       50 on host nid005460 reporting.
  Task       51 on host nid005460 reporting.
  Task       52 on host nid005460 reporting.
  Task       53 on host nid005460 reporting.
  Task       54 on host nid005460 reporting.
  Task       55 on host nid005460 reporting.
  Task       56 on host nid005460 reporting.
  Task       57 on host nid005460 reporting.
  Task       58 on host nid005460 reporting.
  Task       59 on host nid005460 reporting.
  Task       60 on host nid005460 reporting.
  Task       61 on host nid005460 reporting.
  Task       62 on host nid005460 reporting.
  Task       63 on host nid005460 reporting.
  Task       64 on host nid005460 reporting.
  Task       65 on host nid005460 reporting.
  Task       66 on host nid005460 reporting.
  Task       67 on host nid005460 reporting.
  Task       68 on host nid005460 reporting.
  Task       69 on host nid005460 reporting.
  Task       70 on host nid005460 reporting.
  Task       71 on host nid005460 reporting.
  Task       72 on host nid005460 reporting.
  Task       73 on host nid005460 reporting.
  Task       74 on host nid005460 reporting.
  Task       75 on host nid005460 reporting.
  Task       76 on host nid005460 reporting.
  Task       77 on host nid005460 reporting.
  Task       78 on host nid005460 reporting.
  Task       79 on host nid005460 reporting.
  Task       80 on host nid005460 reporting.
  Task       81 on host nid005460 reporting.
  Task       82 on host nid005460 reporting.
  Task       83 on host nid005460 reporting.
  Task       84 on host nid005460 reporting.
  Task       85 on host nid005460 reporting.
  Task       86 on host nid005460 reporting.
  Task       87 on host nid005460 reporting.
  Task       88 on host nid005460 reporting.
  Task       89 on host nid005460 reporting.
  Task       90 on host nid005460 reporting.
  Task       91 on host nid005460 reporting.
  Task       92 on host nid005460 reporting.
  Task       93 on host nid005460 reporting.
  Task       94 on host nid005460 reporting.
  Task       95 on host nid005460 reporting.
  Task       96 on host nid005460 reporting.
  Task       97 on host nid005460 reporting.
  Task       98 on host nid005460 reporting.
  Task       99 on host nid005460 reporting.
  Task      100 on host nid005460 reporting.
  Task      101 on host nid005460 reporting.
  Task      102 on host nid005460 reporting.
  Task      103 on host nid005460 reporting.
  Task      104 on host nid005460 reporting.
  Task      105 on host nid005460 reporting.
  Task      106 on host nid005460 reporting.
  Task      107 on host nid005460 reporting.
  Task      108 on host nid005460 reporting.
  Task      109 on host nid005460 reporting.
  Task      110 on host nid005460 reporting.
  Task      111 on host nid005460 reporting.
  Task      112 on host nid005460 reporting.
  Task      113 on host nid005460 reporting.
  Task      114 on host nid005460 reporting.
  Task      115 on host nid005460 reporting.
  Task      116 on host nid005460 reporting.
  Task      117 on host nid005460 reporting.
  Task      118 on host nid005460 reporting.
  Task      119 on host nid005460 reporting.
  Task      120 on host nid005460 reporting.
  Task      121 on host nid005460 reporting.
  Task      122 on host nid005460 reporting.
  Task      123 on host nid005460 reporting.
  Task      124 on host nid005460 reporting.
  Task      125 on host nid005460 reporting.
  Task      126 on host nid005460 reporting.
  Task      127 on host nid005460 reporting.

  Memory overcommitment is allowed on your operating system.

  Obtaining array dimensions for all initial allocations:
  
  -----------------------------------------------------------------------
  Parsing control.in (first pass over file, find array dimensions only).
  The contents of control.in will be repeated verbatim below
  unless switched off by setting 'verbatim_writeout .false.' .
  in the first line of control.in .
  -----------------------------------------------------------------------
  
  xc                 pbe
  #vdw_correction_hirshfeld_alkali
  vdw_ts self_consistent=.true.
  spin               none
  #spin               collinear	# spin-polarised
  relativistic       atomic_zora scalar
  
  #k-points
  #k_grid 8 8 8
  k_grid 2 2 2
  
  # SCF convergence
  occupation_type    gaussian 0.01
  mixer              pulay
  n_max_pulay        8            # default value 8
  charge_mix_param   0.2          # non-metallic conservative value
  #sc_accuracy_eev    1E-3         # eigen value check
  #sc_accuracy_rho    1E-6         # density check
  #sc_accuracy_etot   1E-5
  #sc_accuracy_forces 1E-4
  #sc_accuracy_forces not_checked
  
  compute_forces .true.
  compute_analytical_stress .true.
  
  sc_iter_limit   500
  
  # Relaxation
  #relax_unit_cell  full
  #relax_geometry   bfgs 1.e-3
  ################################################################################
  #
  #  FHI-aims code project
  #  Volker Blum, 2017
  #
  #  Suggested "intermediate" defaults for Si atom (to be pasted into control.in file)
  #
  ################################################################################
    species        Si
  #     global species definitions
      nucleus             14
      mass                28.0855
  #
      l_hartree           6
  #
      cut_pot             4.0          2.0  1.0
      basis_dep_cutoff    1e-4
  #
      radial_base         42 7.0
      radial_multiplier   2
      angular_grids       specified
        division   0.4121   50
        division   0.7665  110
        division   1.0603  194
        division   1.2846  302
        division   1.4125  434
  #      division   1.4810  590
  #      division   1.5529  770
  #      division   1.6284  974
  #      division   2.6016 1202
  #      outer_grid   974
        outer_grid  434
  ################################################################################
  #
  #  Definition of "minimal" basis
  #
  ################################################################################
  #     valence basis states
      valence      3  s   2.
      valence      3  p   2.
  #     ion occupancy
      ion_occ      3  s   1.
      ion_occ      3  p   1.
  ################################################################################
  #
  #  Suggested additional basis functions. For production calculations,
  #  uncomment them one after another (the most important basis functions are
  #  listed first).
  #
  #  Constructed for dimers: 1.75 A, 2.0 A, 2.25 A, 2.75 A, 3.75 A
  #
  ################################################################################
  #  "First tier" - improvements: -571.96 meV to -37.03 meV
       hydro 3 d 4.2
       hydro 2 p 1.4
       hydro 4 f 6.2
       ionic 3 s auto
  #  "Second tier" - improvements: -16.76 meV to -3.03 meV
  #     hydro 3 d 9
  for_aux     hydro 5 g 9.4
  #     hydro 4 p 4
  #     hydro 1 s 0.65
  #  "Third tier" - improvements: -3.89 meV to -0.60 meV
  #     ionic 3 d auto
  #     hydro 3 s 2.6
  #     hydro 4 f 8.4
  #     hydro 3 d 3.4
  #     hydro 3 p 7.8
  #  "Fourth tier" - improvements: -0.33 meV to -0.11 meV
  #     hydro 2 p 1.6
  #     hydro 5 g 10.8
  #     hydro 5 f 11.2
  #     hydro 3 d 1
  #     hydro 4 s 4.5
  #  Further basis functions that fell out of the optimization - noise
  #  level... < -0.08 meV
  #     hydro 4 d 6.6
  #     hydro 5 g 16.4
  #     hydro 4 d 9
  ################################################################################
  #
  #  FHI-aims code project
  #  Volker Blum, 2017
  #
  #  Suggested "intermediate" defaults for O atom (to be pasted into control.in file)
  #
  ################################################################################
    species        O
  #     global species definitions
      nucleus             8
      mass                15.9994
  #
      l_hartree           6
  #
      cut_pot             4.0  2.0  1.0
      basis_dep_cutoff    1e-4
  #
      radial_base         36 7.0
      radial_multiplier   2
       angular_grids specified
        division   0.1817   50
        division   0.3417  110
        division   0.4949  194
        division   0.6251  302
        division   0.8014  434
  #      division   0.8507  590
  #      division   0.8762  770
  #      division   0.9023  974
  #      division   1.2339 1202
  #      outer_grid 974
        outer_grid  434
  ################################################################################
  #
  #  Definition of "minimal" basis
  #
  ################################################################################
  #     valence basis states
      valence      2  s   2.
      valence      2  p   4.
  #     ion occupancy
      ion_occ      2  s   1.
      ion_occ      2  p   3.
  ################################################################################
  #
  #  Suggested additional basis functions. For production calculations,
  #  uncomment them one after another (the most important basis functions are
  #  listed first).
  #
  #  Constructed for dimers: 1.0 A, 1.208 A, 1.5 A, 2.0 A, 3.0 A
  #
  ################################################################################
  #  "First tier" - improvements: -699.05 meV to -159.38 meV
       hydro 2 p 1.8
       hydro 3 d 7.6
       hydro 3 s 6.4
  #  "Second tier" - improvements: -49.91 meV to -5.39 meV
       hydro 4 f 11.6
  #     hydro 3 p 6.2
  #     hydro 3 d 5.6
    for_aux    hydro 5 g 17.6
  #     hydro 1 s 0.75
  #  "Third tier" - improvements: -2.83 meV to -0.50 meV
  #     ionic 2 p auto
  #     hydro 4 f 10.8
  #     hydro 4 d 4.7
  #     hydro 2 s 6.8
  #  "Fourth tier" - improvements: -0.40 meV to -0.12 meV
  #     hydro 3 p 5
  #     hydro 3 s 3.3
  #     hydro 5 g 15.6
  #     hydro 4 f 17.6
  #     hydro 4 d 14
  # Further basis functions - -0.08 meV and below
  #     hydro 3 s 2.1
  #     hydro 4 d 11.6
  #     hydro 3 p 16
  #     hydro 2 s 17.2
  
  -----------------------------------------------------------------------
  Completed first pass over input file control.in .
  -----------------------------------------------------------------------
  
  
  -----------------------------------------------------------------------
  Parsing geometry.in (first pass over file, find array dimensions only).
  The contents of geometry.in will be repeated verbatim below
  unless switched off by setting 'verbatim_writeout .false.' .
  in the first line of geometry.in .
  -----------------------------------------------------------------------
  
  lattice_vector     4.913332    0.000000    0.000000
  lattice_vector    -2.456666    4.255070    0.000000
  lattice_vector    -0.000000    0.000000    5.419702
  atom_frac       0.000000002670      0.465648897667      0.465648897667 Si
  atom_frac       0.534351103768      0.534351103768      0.534351103768 Si
  atom_frac       0.465648897667      0.000000002670      0.000000002670 Si
  atom_frac       0.135611325154      0.725222808116      0.725222808116 O
  atom_frac       0.589611479810      0.864388673303      0.864388673303 O
  atom_frac       0.274777193432      0.410388516080      0.410388516080 O
  atom_frac       0.410388516080      0.274777193432      0.274777193432 O
  atom_frac       0.864388673303      0.589611479810      0.589611479810 O
  atom_frac       0.725222808116      0.135611325154      0.135611325154 O
  
  -----------------------------------------------------------------------
  Completed first pass over input file geometry.in .
  -----------------------------------------------------------------------
  

  Basic array size parameters:
  | Number of species                 :        2
  | Number of atoms                   :        9
  | Number of lattice vectors         :        3
  | Max. basis fn. angular momentum   :        4
  | Max. atomic/ionic basis occupied n:        3
  | Max. number of basis fn. types    :        3
  | Max. radial fns per species/type  :        5
  | Max. logarithmic grid size        :     1346
  | Max. radial integration grid size :       85
  | Max. angular integration grid size:      434
  | Max. angular grid division number :        8
  | Radial grid for Hartree potential :     1346
  | Number of spin channels           :        1

------------------------------------------------------------
          Reading file control.in.
------------------------------------------------------------
  XC: Using PBE gradient-corrected functionals.
  Using libMBD for calculating MBD and TS energies
  Spin treatment: No spin polarisation.
  Scalar relativistic treatment of kinetic energy: on-site free-atom approximation to ZORA.
  Found k-point grid:         2         2         2
  Occupation type: Gaussian broadening, width =   0.100000E-01 eV.
  Using pulay charge density mixing.
  Pulay mixing - number of memorized iterations:    8
  Charge density mixing - mixing parameter:     0.2000
  Forces will be computed.
  Maximum number of s.-c. iterations  :   500

  Reading configuration options for species Si                  .
  | Found nuclear charge :  14.0000
  | Found atomic mass :    28.085500000000000      amu
  | Found l_max for Hartree potential  :   6
  | Found cutoff potl. onset [A], width [A], scale factor :    4.00000    2.00000    1.00000
  | Threshold for basis-dependent cutoff potential is   0.100000E-03
  | Found data for basic radial integration grid :    42 points, outermost radius =    7.000 A
  | Found multiplier for basic radial grid :   2
  | Found angular grid specification: user-specified.
  | Specified grid contains     6 separate shells.
  | Check grid settings after all constraints further below.
  | Found free-atom valence shell :  3 s   2.000
  | Found free-atom valence shell :  3 p   2.000
  | Found free-ion valence shell :  3 s   1.000
  | Found free-ion valence shell :  3 p   1.000
  | Found hydrogenic basis function :  3 d   4.200
  | Found hydrogenic basis function :  2 p   1.400
  | Found hydrogenic basis function :  4 f   6.200
  | Found ionic basis function :  3 s , default cutoff radius.
  | Found hydrogenic extended basis function :  5 g   9.400
 | Encountered keyword species, ending the description of species Si                  .
  Species Si                  : Missing cutoff potential type.
  Defaulting to exp(1/x)/(1-x)^2 type cutoff potential.
  Species Si: No 'logarithmic' tag. Using default grid for free atom:
  | Default logarithmic grid data [bohr] : 0.1000E-03 0.1000E+03 0.1012E+01
  | Will include ionic basis functions of  2.0-fold positive Si                   ion.
  Species Si: On-site basis accuracy parameter (for Gram-Schmidt orthonormalisation) not specified.
  Using default value basis_acc =  0.1000000E-03.
  Species Si                  : Using default innermost maximum threshold i_radial=  2 for radial functions.
  Species Si                  : Default cutoff onset for free atom density etc. : 0.40000000E+01 AA.
  Species Si                  : Basic radial grid will be enhanced according to radial_multiplier =   2, to contain    85 grid points.

  Reading configuration options for species O                   .
  | Found nuclear charge :   8.0000
  | Found atomic mass :    15.999400000000000      amu
  | Found l_max for Hartree potential  :   6
  | Found cutoff potl. onset [A], width [A], scale factor :    4.00000    2.00000    1.00000
  | Threshold for basis-dependent cutoff potential is   0.100000E-03
  | Found data for basic radial integration grid :    36 points, outermost radius =    7.000 A
  | Found multiplier for basic radial grid :   2
  | Found angular grid specification: user-specified.
  | Specified grid contains     6 separate shells.
  | Check grid settings after all constraints further below.
  | Found free-atom valence shell :  2 s   2.000
  | Found free-atom valence shell :  2 p   4.000
  | Found free-ion valence shell :  2 s   1.000
  | Found free-ion valence shell :  2 p   3.000
  | Found hydrogenic basis function :  2 p   1.800
  | Found hydrogenic basis function :  3 d   7.600
  | Found hydrogenic basis function :  3 s   6.400
  | Found hydrogenic basis function :  4 f  11.600
  | Found hydrogenic extended basis function :  5 g  17.600
  Species O                   : Missing cutoff potential type.
  Defaulting to exp(1/x)/(1-x)^2 type cutoff potential.
  Species O : No 'logarithmic' tag. Using default grid for free atom:
  | Default logarithmic grid data [bohr] : 0.1000E-03 0.1000E+03 0.1012E+01
  Species O : On-site basis accuracy parameter (for Gram-Schmidt orthonormalisation) not specified.
  Using default value basis_acc =  0.1000000E-03.
  Species O                   : Using default innermost maximum threshold i_radial=  2 for radial functions.
  Species O                   : Default cutoff onset for free atom density etc. : 0.40000000E+01 AA.
  Species O                   : Basic radial grid will be enhanced according to radial_multiplier =   2, to contain    73 grid points.

  Finished reading input file 'control.in'.

------------------------------------------------------------


------------------------------------------------------------
          Reading geometry description geometry.in.
------------------------------------------------------------
  | The smallest distance between any two atoms is         1.29310482 AA.
  | The first atom of this pair is atom number                      8 .
  | The second atom of this pair is atom number                     1 .
  | Wigner-Seitz cell of the first atom image           0     1     1 .
  | (The Wigner-Seitz cell of the second atom is 0 0 0  by definition.)

  Symmetry information by spglib:
  | Precision set to  0.1E-04
  | Number of Operations  : 2
  | Space group           : 5
  | International         : C2
  | Schoenflies           : C2^3
  Input structure read successfully.
  The structure contains        9 atoms,  and a total of         90.000 electrons.

  Input geometry:
  | Unit cell:
  |        4.91333200        0.00000000        0.00000000
  |       -2.45666600        4.25507000        0.00000000
  |       -0.00000000        0.00000000        5.41970200
  | Atomic structure:
  |       Atom                x [A]            y [A]            z [A]
  |    1: Species Si           -1.14394380        1.98136865        2.52367826
  |    2: Species Si            1.31272219        2.27370135        2.89602375
  |    3: Species Si            2.28788762        0.00000001        0.00000001
  |    4: Species O            -1.11532675        3.08587381        3.93049150
  |    5: Species O             0.77344269        3.67803431        4.68472902
  |    6: Species O             0.34188406        1.74623186        2.22418346
  |    7: Species O             1.34133924        1.16919619        1.48921050
  |    8: Species O             2.79855005        2.50883812        3.19551852
  |    9: Species O             3.23010870        0.57703568        0.73497297

  Lattice parameters for 3D lattice (in Angstroms) :     4.913332    4.913332    5.419702
  Angle(s) between unit vectors (in degrees)       :    90.000000   90.000000  120.000002


  Quantities derived from the lattice vectors (in Angstrom^-1):
  | Reciprocal lattice vector 1:  1.278803  0.738318  0.000000
  | Reciprocal lattice vector 2:  0.000000  1.476635  0.000000
  | Reciprocal lattice vector 3:  0.000000  0.000000  1.159323
  | Unit cell volume                               :   0.113307E+03  Angstrom^3

  Fractional coordinates:
                         L1                L2                L3
       atom_frac         0.00000000        0.46564890        0.46564890  Si
       atom_frac         0.53435110        0.53435110        0.53435110  Si
       atom_frac         0.46564890        0.00000000        0.00000000  Si
       atom_frac         0.13561133        0.72522281        0.72522281  O
       atom_frac         0.58961148        0.86438867        0.86438867  O
       atom_frac         0.27477719        0.41038852        0.41038852  O
       atom_frac         0.41038852        0.27477719        0.27477719  O
       atom_frac         0.86438867        0.58961148        0.58961148  O
       atom_frac         0.72522281        0.13561133        0.13561133  O

  Slab Identifier: This seems to be a bulk system.

  Finished reading input file 'geometry.in'.



  Consistency checks for stacksize environment parameter are next.

  | Maximum stacksize for task 0: unlimited
  | Maximum stacksize for task 1: unlimited
  | Maximum stacksize for task 2: unlimited
  | Maximum stacksize for task 3: unlimited
  | Maximum stacksize for task 4: unlimited
  | Maximum stacksize for task 5: unlimited
  | Maximum stacksize for task 6: unlimited
  | Maximum stacksize for task 7: unlimited
  | Maximum stacksize for task 8: unlimited
  | Maximum stacksize for task 9: unlimited
  | Maximum stacksize for task 10: unlimited
  | Maximum stacksize for task 11: unlimited
  | Maximum stacksize for task 12: unlimited
  | Maximum stacksize for task 13: unlimited
  | Maximum stacksize for task 14: unlimited
  | Maximum stacksize for task 15: unlimited
  | Maximum stacksize for task 16: unlimited
  | Maximum stacksize for task 17: unlimited
  | Maximum stacksize for task 18: unlimited
  | Maximum stacksize for task 19: unlimited
  | Maximum stacksize for task 20: unlimited
  | Maximum stacksize for task 21: unlimited
  | Maximum stacksize for task 22: unlimited
  | Maximum stacksize for task 23: unlimited
  | Maximum stacksize for task 24: unlimited
  | Maximum stacksize for task 25: unlimited
  | Maximum stacksize for task 26: unlimited
  | Maximum stacksize for task 27: unlimited
  | Maximum stacksize for task 28: unlimited
  | Maximum stacksize for task 29: unlimited
  | Maximum stacksize for task 30: unlimited
  | Maximum stacksize for task 31: unlimited
  | Maximum stacksize for task 32: unlimited
  | Maximum stacksize for task 33: unlimited
  | Maximum stacksize for task 34: unlimited
  | Maximum stacksize for task 35: unlimited
  | Maximum stacksize for task 36: unlimited
  | Maximum stacksize for task 37: unlimited
  | Maximum stacksize for task 38: unlimited
  | Maximum stacksize for task 39: unlimited
  | Maximum stacksize for task 40: unlimited
  | Maximum stacksize for task 41: unlimited
  | Maximum stacksize for task 42: unlimited
  | Maximum stacksize for task 43: unlimited
  | Maximum stacksize for task 44: unlimited
  | Maximum stacksize for task 45: unlimited
  | Maximum stacksize for task 46: unlimited
  | Maximum stacksize for task 47: unlimited
  | Maximum stacksize for task 48: unlimited
  | Maximum stacksize for task 49: unlimited
  | Maximum stacksize for task 50: unlimited
  | Maximum stacksize for task 51: unlimited
  | Maximum stacksize for task 52: unlimited
  | Maximum stacksize for task 53: unlimited
  | Maximum stacksize for task 54: unlimited
  | Maximum stacksize for task 55: unlimited
  | Maximum stacksize for task 56: unlimited
  | Maximum stacksize for task 57: unlimited
  | Maximum stacksize for task 58: unlimited
  | Maximum stacksize for task 59: unlimited
  | Maximum stacksize for task 60: unlimited
  | Maximum stacksize for task 61: unlimited
  | Maximum stacksize for task 62: unlimited
  | Maximum stacksize for task 63: unlimited
  | Maximum stacksize for task 64: unlimited
  | Maximum stacksize for task 65: unlimited
  | Maximum stacksize for task 66: unlimited
  | Maximum stacksize for task 67: unlimited
  | Maximum stacksize for task 68: unlimited
  | Maximum stacksize for task 69: unlimited
  | Maximum stacksize for task 70: unlimited
  | Maximum stacksize for task 71: unlimited
  | Maximum stacksize for task 72: unlimited
  | Maximum stacksize for task 73: unlimited
  | Maximum stacksize for task 74: unlimited
  | Maximum stacksize for task 75: unlimited
  | Maximum stacksize for task 76: unlimited
  | Maximum stacksize for task 77: unlimited
  | Maximum stacksize for task 78: unlimited
  | Maximum stacksize for task 79: unlimited
  | Maximum stacksize for task 80: unlimited
  | Maximum stacksize for task 81: unlimited
  | Maximum stacksize for task 82: unlimited
  | Maximum stacksize for task 83: unlimited
  | Maximum stacksize for task 84: unlimited
  | Maximum stacksize for task 85: unlimited
  | Maximum stacksize for task 86: unlimited
  | Maximum stacksize for task 87: unlimited
  | Maximum stacksize for task 88: unlimited
  | Maximum stacksize for task 89: unlimited
  | Maximum stacksize for task 90: unlimited
  | Maximum stacksize for task 91: unlimited
  | Maximum stacksize for task 92: unlimited
  | Maximum stacksize for task 93: unlimited
  | Maximum stacksize for task 94: unlimited
  | Maximum stacksize for task 95: unlimited
  | Maximum stacksize for task 96: unlimited
  | Maximum stacksize for task 97: unlimited
  | Maximum stacksize for task 98: unlimited
  | Maximum stacksize for task 99: unlimited
  | Maximum stacksize for task 100: unlimited
  | Maximum stacksize for task 101: unlimited
  | Maximum stacksize for task 102: unlimited
  | Maximum stacksize for task 103: unlimited
  | Maximum stacksize for task 104: unlimited
  | Maximum stacksize for task 105: unlimited
  | Maximum stacksize for task 106: unlimited
  | Maximum stacksize for task 107: unlimited
  | Maximum stacksize for task 108: unlimited
  | Maximum stacksize for task 109: unlimited
  | Maximum stacksize for task 110: unlimited
  | Maximum stacksize for task 111: unlimited
  | Maximum stacksize for task 112: unlimited
  | Maximum stacksize for task 113: unlimited
  | Maximum stacksize for task 114: unlimited
  | Maximum stacksize for task 115: unlimited
  | Maximum stacksize for task 116: unlimited
  | Maximum stacksize for task 117: unlimited
  | Maximum stacksize for task 118: unlimited
  | Maximum stacksize for task 119: unlimited
  | Maximum stacksize for task 120: unlimited
  | Maximum stacksize for task 121: unlimited
  | Maximum stacksize for task 122: unlimited
  | Maximum stacksize for task 123: unlimited
  | Maximum stacksize for task 124: unlimited
  | Maximum stacksize for task 125: unlimited
  | Maximum stacksize for task 126: unlimited
  | Maximum stacksize for task 127: unlimited
  | Current stacksize for task 0: unlimited
  | Current stacksize for task 1: unlimited
  | Current stacksize for task 2: unlimited
  | Current stacksize for task 3: unlimited
  | Current stacksize for task 4: unlimited
  | Current stacksize for task 5: unlimited
  | Current stacksize for task 6: unlimited
  | Current stacksize for task 7: unlimited
  | Current stacksize for task 8: unlimited
  | Current stacksize for task 9: unlimited
  | Current stacksize for task 10: unlimited
  | Current stacksize for task 11: unlimited
  | Current stacksize for task 12: unlimited
  | Current stacksize for task 13: unlimited
  | Current stacksize for task 14: unlimited
  | Current stacksize for task 15: unlimited
  | Current stacksize for task 16: unlimited
  | Current stacksize for task 17: unlimited
  | Current stacksize for task 18: unlimited
  | Current stacksize for task 19: unlimited
  | Current stacksize for task 20: unlimited
  | Current stacksize for task 21: unlimited
  | Current stacksize for task 22: unlimited
  | Current stacksize for task 23: unlimited
  | Current stacksize for task 24: unlimited
  | Current stacksize for task 25: unlimited
  | Current stacksize for task 26: unlimited
  | Current stacksize for task 27: unlimited
  | Current stacksize for task 28: unlimited
  | Current stacksize for task 29: unlimited
  | Current stacksize for task 30: unlimited
  | Current stacksize for task 31: unlimited
  | Current stacksize for task 32: unlimited
  | Current stacksize for task 33: unlimited
  | Current stacksize for task 34: unlimited
  | Current stacksize for task 35: unlimited
  | Current stacksize for task 36: unlimited
  | Current stacksize for task 37: unlimited
  | Current stacksize for task 38: unlimited
  | Current stacksize for task 39: unlimited
  | Current stacksize for task 40: unlimited
  | Current stacksize for task 41: unlimited
  | Current stacksize for task 42: unlimited
  | Current stacksize for task 43: unlimited
  | Current stacksize for task 44: unlimited
  | Current stacksize for task 45: unlimited
  | Current stacksize for task 46: unlimited
  | Current stacksize for task 47: unlimited
  | Current stacksize for task 48: unlimited
  | Current stacksize for task 49: unlimited
  | Current stacksize for task 50: unlimited
  | Current stacksize for task 51: unlimited
  | Current stacksize for task 52: unlimited
  | Current stacksize for task 53: unlimited
  | Current stacksize for task 54: unlimited
  | Current stacksize for task 55: unlimited
  | Current stacksize for task 56: unlimited
  | Current stacksize for task 57: unlimited
  | Current stacksize for task 58: unlimited
  | Current stacksize for task 59: unlimited
  | Current stacksize for task 60: unlimited
  | Current stacksize for task 61: unlimited
  | Current stacksize for task 62: unlimited
  | Current stacksize for task 63: unlimited
  | Current stacksize for task 64: unlimited
  | Current stacksize for task 65: unlimited
  | Current stacksize for task 66: unlimited
  | Current stacksize for task 67: unlimited
  | Current stacksize for task 68: unlimited
  | Current stacksize for task 69: unlimited
  | Current stacksize for task 70: unlimited
  | Current stacksize for task 71: unlimited
  | Current stacksize for task 72: unlimited
  | Current stacksize for task 73: unlimited
  | Current stacksize for task 74: unlimited
  | Current stacksize for task 75: unlimited
  | Current stacksize for task 76: unlimited
  | Current stacksize for task 77: unlimited
  | Current stacksize for task 78: unlimited
  | Current stacksize for task 79: unlimited
  | Current stacksize for task 80: unlimited
  | Current stacksize for task 81: unlimited
  | Current stacksize for task 82: unlimited
  | Current stacksize for task 83: unlimited
  | Current stacksize for task 84: unlimited
  | Current stacksize for task 85: unlimited
  | Current stacksize for task 86: unlimited
  | Current stacksize for task 87: unlimited
  | Current stacksize for task 88: unlimited
  | Current stacksize for task 89: unlimited
  | Current stacksize for task 90: unlimited
  | Current stacksize for task 91: unlimited
  | Current stacksize for task 92: unlimited
  | Current stacksize for task 93: unlimited
  | Current stacksize for task 94: unlimited
  | Current stacksize for task 95: unlimited
  | Current stacksize for task 96: unlimited
  | Current stacksize for task 97: unlimited
  | Current stacksize for task 98: unlimited
  | Current stacksize for task 99: unlimited
  | Current stacksize for task 100: unlimited
  | Current stacksize for task 101: unlimited
  | Current stacksize for task 102: unlimited
  | Current stacksize for task 103: unlimited
  | Current stacksize for task 104: unlimited
  | Current stacksize for task 105: unlimited
  | Current stacksize for task 106: unlimited
  | Current stacksize for task 107: unlimited
  | Current stacksize for task 108: unlimited
  | Current stacksize for task 109: unlimited
  | Current stacksize for task 110: unlimited
  | Current stacksize for task 111: unlimited
  | Current stacksize for task 112: unlimited
  | Current stacksize for task 113: unlimited
  | Current stacksize for task 114: unlimited
  | Current stacksize for task 115: unlimited
  | Current stacksize for task 116: unlimited
  | Current stacksize for task 117: unlimited
  | Current stacksize for task 118: unlimited
  | Current stacksize for task 119: unlimited
  | Current stacksize for task 120: unlimited
  | Current stacksize for task 121: unlimited
  | Current stacksize for task 122: unlimited
  | Current stacksize for task 123: unlimited
  | Current stacksize for task 124: unlimited
  | Current stacksize for task 125: unlimited
  | Current stacksize for task 126: unlimited
  | Current stacksize for task 127: unlimited

  Consistency checks for the contents of control.in are next.

  MPI_IN_PLACE appears to work with this MPI implementation.
  | Keeping use_mpi_in_place .true. (see manual).
  Target number of points in a grid batch is not set. Defaulting to  100
  Method for grid partitioning is not set. Defaulting to parallel hash+maxmin partitioning.
  Batch size limit is not set. Defaulting to    200
  By default, will store active basis functions for each batch.
  If in need of memory, prune_basis_once .false. can be used to disable this option.
  communication_type for Hartree potential was not specified.
  Defaulting to calc_hartree .
  Pulay mixer: Number of initial linear mixing iterations not set.
  Defaulting to    0 iterations.
  Work space size for distributed Hartree potential not set.
  Defaulting to   0.200000E+03 MB.
  Algorithm-dependent basis array size parameters:
  | n_max_pulay                         :        8
  Presetting      1001 iterations before the initial mixing cycle
  is restarted anyway using the sc_init_iter criterion / keyword.
  Presetting a factor      1.000 between actual scf density residual
  and density convergence criterion sc_accuracy_rho below which sc_init_iter
  takes no effect.
 * No s.c.f. convergence criteria (sc_accuracy_*) were provided in control.in.
 * The run will proceed with a reasonable default guess, but please check whether.
 * the s.c.f. cycles seem to take too much or too little time.
  Geometry relaxation not requested: no relaxation will be performed.
  Analytical stress will be computed.
  Analytical stress calculation: Only the upper triangle is calculated.
                                 Final output is symmetrized.
  Analytical stress calculation: scf convergence accuracy of stress not set.
                                 Analytical stress self-consistency will not be checked explicitly.
                                 Be sure to set other criteria like sc_accuracy_rho tight enough.
  Forces evaluation will include force correction term due to incomplete self-consistency (default).
 * Notice: The s.c.f. convergence criterion sc_accuracy_rho was not provided.
 * We used to stop in this case, and ask the user to provide reasonable
 * scf convergence criteria. However, this led some users to employ criteria
 * that led to extremely long run times, e.g., for simple relaxation.
 * We now preset a default value for sc_accuracy_rho if it is not set.
 * You may still wish to check if this setting is too tight or too loose for your needs.
 * Based on n_atoms and forces and force-correction status, FHI-aims chose sc_accuracy_rho =  0.122474E-05 .
  Force calculation: scf convergence accuracy of forces not set.
  Defaulting to 'sc_accuracy_forces not_checked'.
  Handling of forces: Unphysical translation and rotation will be removed from forces.
  No accuracy limit for integral partition fn. given. Defaulting to  0.1000E-14.
  No threshold value for u(r) in integrations given. Defaulting to  0.1000E-05.
  No accuracy for occupation numbers given. Defaulting to  0.1000E-12.
  No threshold value for occupation numbers given. Defaulting to  0.0000E+00.
  No accuracy for fermi level given. Defaulting to  0.1000E-19.
  Maximum # of iterations to find E_F not set. Defaulting to  200.
  Preferred method for the eigenvalue solver ('KS_method') not specified in 'control.in'.
  Calling BLACS routine to test compilation state
  Since ScaLAPACK support is enabled, defaulting to ELPA (via ELSI).
  Will not use alltoall communication since running on < 1024 CPUs.
  Threshold for basis singularities not set.
  Default threshold for basis singularities:  0.1000E-04
  partition_type (choice of integration weights) for integrals was not specified.
  | Using a version of the partition function of Stratmann and coworkers ('stratmann_sparse').
  | At each grid point, the set of atoms used to build the partition table is smoothly restricted to
  | only those atoms whose free-atom density would be non-zero at that grid point.
  Partitioning for Hartree potential was not defined. Using partition_type for integrals.
  | Adjusted default value of keyword multip_moments_threshold to:       0.10000000E-11
  | This value may affect high angular momentum components of the Hartree potential in periodic systems.
  No q(lm)/r^(l+1) cutoff set for long-range Hartree potential.
  | Using default value of  0.100000E-09 .
  | Verify using the multipole_threshold keyword.
  Defaulting to new monopole extrapolation.
  Density update method: automatic selection selected.
  Using density matrix based charge density update.
  Using density matrix based charge density update.
  Using packed matrix style: index .
  Defaulting to use time-reversal symmetry for k-point grid.
  Charge integration errors on the 3D integration grid will be compensated
  by explicit normalization and distribution of residual charges.
  Use the "compensate_multipole_errors" flag to change this behaviour.
  Found no potential conflicts with setting 'use_local_index' for this calculation.
  Flag 'use_local_index' has not been set.
  Testing whether we classify this calculation as large-scale ...
  The calculation contains less than 100 atoms. This is most likely not a large-scale calculation.
  Not setting 'use_local_index'.

  Consistency checks for the contents of geometry.in are next.


  Range separation radius for Ewald summation (hartree_convergence_parameter):      3.26313487 bohr.
  Number of empty states per atom not set in control.in - providing a guess from actual geometry.
  | Total number of empty states used during s.c.f. cycle:       27
  If you use a very high smearing, use empty_states (per atom!) in control.in to increase this value.

  Structure-dependent array size parameters: 
  | Maximum number of distinct radial functions  :       18
  | Maximum number of basis functions            :      282
  | Number of Kohn-Sham states (occupied + empty):       72
------------------------------------------------------------
  After read_input_data [GB]:    236.53

  Performing system and environment tests:
  *** Environment variable OMP_NUM_THREADS is not set
  *** For performance reasons you might want to set it to 1
  | Checking for ScaLAPACK...
  | Testing pdtran()...
  | All pdtran() tests passed.
  After prepare_system [GB]:    236.32

------------------------------------------------------------
          Preparing all fixed parts of the calculation.
------------------------------------------------------------
  Determining machine precision:
     2.2250738585072014E-308
  Setting up grids for atomic and cluster calculations.

  Creating wave function, potential, and density for free atoms.
  Runtime choices for atomic solver:
  | atomic solver xc        : PBE
  | compute density gradient: 1
  | compute kinetic density : F

  Species: Si

  List of occupied orbitals and eigenvalues:
    n    l              occ      energy [Ha]    energy [eV]
    1    0           2.0000       -65.775969     -1789.8552
    2    0           2.0000        -5.123557      -139.4191
    3    0           2.0000        -0.394463       -10.7339
    2    1           6.0000        -3.508175       -95.4623
    3    1           2.0000        -0.147003        -4.0002


  Species: O

  List of occupied orbitals and eigenvalues:
    n    l              occ      energy [Ha]    energy [eV]
    1    0           2.0000       -18.927378      -515.0401
    2    0           2.0000        -0.880539       -23.9607
    2    1           4.0000        -0.331811        -9.0290


  Adding cutoff potential to free-atom effective potential.
  Creating fixed part of basis set: Ionic, confined, hydrogenic.

  Si                   ion:

  List of free ionic orbitals and eigenvalues:
    n    l      energy [Ha]    energy [eV]
    1    0       -66.641157     -1813.3982
    2    0        -5.964274      -162.2962
    3    0        -1.073878       -29.2217
    2    1        -4.350005      -118.3697
    3    1        -0.776571       -21.1316


  List of ionic basis orbitals and eigenvalues:
    n    l      energy [Ha]    energy [eV]    outer radius [A]
    3    0        -1.073870       -29.2215       4.534782


  Si                   hydrogenic:

  List of hydrogenic basis orbitals: 
    n    l      effective z      eigenvalue [eV]  inner max. [A]     outer max. [A]     outer radius [A]   
    3    2         4.200000       -26.6668           1.139231           1.139231           5.315897
    2    1         1.400000        -6.6027           1.490786           1.490786           5.447472
    4    3         6.200000       -32.6870           1.368518           1.368518           5.381283

  List of extra hydrogenic orbitals for auxiliary basis: 
    n    l      effective z      eigenvalue [eV]  inner max. [A]     outer max. [A]     outer radius [A]   
    5    4         9.400000       -48.0877           1.402391           1.402391           5.251306


  O                    hydrogenic:

  List of hydrogenic basis orbitals: 
    n    l      effective z      eigenvalue [eV]  inner max. [A]     outer max. [A]     outer radius [A]   
    2    1         1.800000       -11.0118           1.178562           1.178562           5.432602
    3    2         7.600000       -87.3182           0.624125           0.624125           3.541477
    3    0         6.400000       -61.9209           0.061167           1.081902           4.306578
    4    3        11.600000      -114.4238           0.731631           0.731631           3.585037

  List of extra hydrogenic orbitals for auxiliary basis: 
    n    l      effective z      eigenvalue [eV]  inner max. [A]     outer max. [A]     outer radius [A]   
    5    4        17.600000      -168.5799           0.749740           0.749740           3.372465

  Creating atomic-like basis functions for current effective potential.

  Species Si                  :

  List of atomic basis orbitals and eigenvalues:
    n    l      energy [Ha]    energy [eV]    outer radius [A]
    1    0       -65.775969     -1789.8552       0.789468
    2    0        -5.123557      -139.4191       2.815114
    3    0        -0.394463       -10.7339       5.315897
    2    1        -3.508175       -95.4623       3.259919
    3    1        -0.147003        -4.0002       5.447472


  Species O                   :

  List of atomic basis orbitals and eigenvalues:
    n    l      energy [Ha]    energy [eV]    outer radius [A]
    1    0       -18.927378      -515.0401       1.415765
    2    0        -0.880539       -23.9607       5.048385
    2    1        -0.331811        -9.0290       5.301386

  Assembling full basis from fixed parts.
  | Species Si :   atomic orbital   1 s accepted.
  | Species Si :   atomic orbital   2 s accepted.
  | Species Si :    ionic orbital   3 s accepted.
  | Species Si :   atomic orbital   3 s accepted.
  | Species Si :   atomic orbital   2 p accepted.
  | Species Si :   atomic orbital   3 p accepted.
  | Species Si :    hydro orbital   2 p accepted.
  | Species Si :    hydro orbital   3 d accepted.
  | Species Si :    hydro orbital   4 f accepted.
  | Species O :   atomic orbital   1 s accepted.
  | Species O :    hydro orbital   3 s accepted.
  | Species O :   atomic orbital   2 s accepted.
  | Species O :   atomic orbital   2 p accepted.
  | Species O :    hydro orbital   2 p accepted.
  | Species O :    hydro orbital   3 d accepted.
  | Species O :    hydro orbital   4 f accepted.

  Basis size parameters after reduction:
  | Total number of radial functions:       16
  | Total number of basis functions :      201

  Assembling extended basis for auxiliary basis.
  | Species Si :   atomic orbital   1 s accepted.
  | Species Si :   atomic orbital   2 s accepted.
  | Species Si :    ionic orbital   3 s accepted.
  | Species Si :   atomic orbital   3 s accepted.
  | Species Si :   atomic orbital   2 p accepted.
  | Species Si :   atomic orbital   3 p accepted.
  | Species Si :    hydro orbital   2 p accepted.
  | Species Si :    hydro orbital   3 d accepted.
  | Species Si :    hydro orbital   4 f accepted.
  | Species Si :    hydro orbital   5 g accepted.
  | Species O :   atomic orbital   1 s accepted.
  | Species O :    hydro orbital   3 s accepted.
  | Species O :   atomic orbital   2 s accepted.
  | Species O :   atomic orbital   2 p accepted.
  | Species O :    hydro orbital   2 p accepted.
  | Species O :    hydro orbital   3 d accepted.
  | Species O :    hydro orbital   4 f accepted.
  | Species O :    hydro orbital   5 g accepted.
  Per-task memory consumption for arrays in subroutine allocate_ext:
  |           6.209872MB.

  Extended basis size parameters after reduction:
  | Total number of radial functions:       18
  | Total number of basis functions :      282

  Testing on-site integration grid accuracy.
  |  Species  Function  <phi|h_atom|phi> (log., in eV)  <phi|h_atom|phi> (rad., in eV)
           1        1              -1789.8551969286              -1789.8551654044
           1        2               -139.4190834032               -139.4190829157
           1        3                -10.3851269365                -10.3851269662
           1        4                  5.2748560831                  5.2746879749
           1        5                -95.4622899789                -95.4622898460
           1        6                 -4.0035070090                 -4.0036255172
           1        7                  4.8352944695                  4.8334925957
           1        8                  6.2275610475                  6.2275566925
           1        9                 19.1745287805                 19.1745199964
           2       10               -515.0401491148               -515.0401445497
           2       11                 15.1629302771                 15.1629233102
           2       12                -21.6127103295                -21.6127145449
           2       13                 -9.0290718243                 -9.0290720379
           2       14                  7.9075681532                  7.9075643182
           2       15                 45.8331828879                 45.8331828941
           2       16                 85.4133898762                 85.4133899074

  Preparing densities etc. for the partition functions (integrals / Hartree potential).
 Frequency grid relative error: 0.12425793727288692E-009                          
 Will use parallel mode: atoms     

  Preparations completed.
  max(cpu_time)          :      0.303 s.
  Wall clock time (cpu1) :      0.300 s.
------------------------------------------------------------
  After prepare_scf [GB]:    233.77

  Initializing index lists of integration centers etc. from given atomic structure:
  Mapping all atomic coordinates to central unit cell.

  Initializing the k-points
  Using symmetry for reducing the k-points
  | k-points reduced from:        8 to        8
  | Number of k-points                             :         8
  The eigenvectors in the calculations are REAL.
  | Number of basis functions in the Hamiltonian integrals :      4342
  | Number of basis functions in a single unit cell        :       201
  | Number of centers in hartree potential         :      1414
  | Number of centers in hartree multipole         :      1044
  | Number of centers in electron density summation:       796
  | Number of centers in basis integrals           :       850
  | Number of centers in integrals                 :       308
  | Number of centers in hamiltonian               :       798
  | Consuming         16 KiB for k_phase.
  | Number of super-cells (origin) [n_cells]                     :         729
  | Number of super-cells (after PM_index) [n_cells]             :         128
  | Number of super-cells in hamiltonian [n_cells_in_hamiltonian]:         128
  | Size of matrix packed + index [n_hamiltonian_matrix_size] :      625588
  After initialize_bc_dependent_lists [GB]:    233.20

------------------------------------------------------------
          Begin self-consistency loop: Initialization.

          Date     :  20240827, Time     :  173250.663
------------------------------------------------------------
  Available memory per node after initialize_hartree_non_periodic_ewald [GB]:    233.20
  | Estimated reciprocal-space cutoff momentum G_max:         3.03202437 bohr^-1 .
  | Reciprocal lattice points for long-range Hartree potential:     362
  Available memory per node after initialize_recip_hartree_potential [GB]:    233.20
  Using simple linear distribution as default method for k-point parallelism.
  * Using 128 tasks for Scalapack Eigenvalue solver.
  Detailed listing of tasks and assigned k-points:
   Task     0 k-point     1 on nid005460
   Task     1 k-point     1 on nid005460
   Task     2 k-point     1 on nid005460
   Task     3 k-point     1 on nid005460
   Task     4 k-point     1 on nid005460
   Task     5 k-point     1 on nid005460
   Task     6 k-point     1 on nid005460
   Task     7 k-point     1 on nid005460
   Task     8 k-point     1 on nid005460
   Task     9 k-point     1 on nid005460
   Task    10 k-point     1 on nid005460
   Task    11 k-point     1 on nid005460
   Task    12 k-point     1 on nid005460
   Task    13 k-point     1 on nid005460
   Task    14 k-point     1 on nid005460
   Task    15 k-point     1 on nid005460
   Task    16 k-point     2 on nid005460
   Task    17 k-point     2 on nid005460
   Task    18 k-point     2 on nid005460
   Task    19 k-point     2 on nid005460
   Task    20 k-point     2 on nid005460
   Task    21 k-point     2 on nid005460
   Task    22 k-point     2 on nid005460
   Task    23 k-point     2 on nid005460
   Task    24 k-point     2 on nid005460
   Task    25 k-point     2 on nid005460
   Task    26 k-point     2 on nid005460
   Task    27 k-point     2 on nid005460
   Task    28 k-point     2 on nid005460
   Task    29 k-point     2 on nid005460
   Task    30 k-point     2 on nid005460
   Task    31 k-point     2 on nid005460
   Task    32 k-point     3 on nid005460
   Task    33 k-point     3 on nid005460
   Task    34 k-point     3 on nid005460
   Task    35 k-point     3 on nid005460
   Task    36 k-point     3 on nid005460
   Task    37 k-point     3 on nid005460
   Task    38 k-point     3 on nid005460
   Task    39 k-point     3 on nid005460
   Task    40 k-point     3 on nid005460
   Task    41 k-point     3 on nid005460
   Task    42 k-point     3 on nid005460
   Task    43 k-point     3 on nid005460
   Task    44 k-point     3 on nid005460
   Task    45 k-point     3 on nid005460
   Task    46 k-point     3 on nid005460
   Task    47 k-point     3 on nid005460
   Task    48 k-point     4 on nid005460
   Task    49 k-point     4 on nid005460
   Task    50 k-point     4 on nid005460
   Task    51 k-point     4 on nid005460
   Task    52 k-point     4 on nid005460
   Task    53 k-point     4 on nid005460
   Task    54 k-point     4 on nid005460
   Task    55 k-point     4 on nid005460
   Task    56 k-point     4 on nid005460
   Task    57 k-point     4 on nid005460
   Task    58 k-point     4 on nid005460
   Task    59 k-point     4 on nid005460
   Task    60 k-point     4 on nid005460
   Task    61 k-point     4 on nid005460
   Task    62 k-point     4 on nid005460
   Task    63 k-point     4 on nid005460
   Task    64 k-point     5 on nid005460
   Task    65 k-point     5 on nid005460
   Task    66 k-point     5 on nid005460
   Task    67 k-point     5 on nid005460
   Task    68 k-point     5 on nid005460
   Task    69 k-point     5 on nid005460
   Task    70 k-point     5 on nid005460
   Task    71 k-point     5 on nid005460
   Task    72 k-point     5 on nid005460
   Task    73 k-point     5 on nid005460
   Task    74 k-point     5 on nid005460
   Task    75 k-point     5 on nid005460
   Task    76 k-point     5 on nid005460
   Task    77 k-point     5 on nid005460
   Task    78 k-point     5 on nid005460
   Task    79 k-point     5 on nid005460
   Task    80 k-point     6 on nid005460
   Task    81 k-point     6 on nid005460
   Task    82 k-point     6 on nid005460
   Task    83 k-point     6 on nid005460
   Task    84 k-point     6 on nid005460
   Task    85 k-point     6 on nid005460
   Task    86 k-point     6 on nid005460
   Task    87 k-point     6 on nid005460
   Task    88 k-point     6 on nid005460
   Task    89 k-point     6 on nid005460
   Task    90 k-point     6 on nid005460
   Task    91 k-point     6 on nid005460
   Task    92 k-point     6 on nid005460
   Task    93 k-point     6 on nid005460
   Task    94 k-point     6 on nid005460
   Task    95 k-point     6 on nid005460
   Task    96 k-point     7 on nid005460
   Task    97 k-point     7 on nid005460
   Task    98 k-point     7 on nid005460
   Task    99 k-point     7 on nid005460
   Task   100 k-point     7 on nid005460
   Task   101 k-point     7 on nid005460
   Task   102 k-point     7 on nid005460
   Task   103 k-point     7 on nid005460
   Task   104 k-point     7 on nid005460
   Task   105 k-point     7 on nid005460
   Task   106 k-point     7 on nid005460
   Task   107 k-point     7 on nid005460
   Task   108 k-point     7 on nid005460
   Task   109 k-point     7 on nid005460
   Task   110 k-point     7 on nid005460
   Task   111 k-point     7 on nid005460
   Task   112 k-point     8 on nid005460
   Task   113 k-point     8 on nid005460
   Task   114 k-point     8 on nid005460
   Task   115 k-point     8 on nid005460
   Task   116 k-point     8 on nid005460
   Task   117 k-point     8 on nid005460
   Task   118 k-point     8 on nid005460
   Task   119 k-point     8 on nid005460
   Task   120 k-point     8 on nid005460
   Task   121 k-point     8 on nid005460
   Task   122 k-point     8 on nid005460
   Task   123 k-point     8 on nid005460
   Task   124 k-point     8 on nid005460
   Task   125 k-point     8 on nid005460
   Task   126 k-point     8 on nid005460
   Task   127 k-point     8 on nid005460
  K-point:     1 Tasks:    16 split into      4 X      4 BLACS grid
  Calculating block size based on n_basis =          201  max_nprow =            4  max_npcol =            4
  ScaLAPACK block size set to:           16
  Allocating        0.025 MB for ovlp
  Allocating        0.025 MB for ham
  Allocating        0.025 MB for eigenvec
  Required Scalapack workspace - INTEGER:            1  REAL:             1
  Available memory per node after initialize_scalapack [GB]:    233.20
  Available memory per node after aims_elsi_init_scf [GB]:    233.20
  Available memory per node after initialize_fixed_grids [GB]:    233.20
  Partitioning the integration grid into batches with parallel hashing+maxmin method.
  | Number of batches:     2305
  | Maximal batch size:     118
  | Minimal batch size:      50
  | Average batch size:      75.741
  | Standard deviation of batch sizes:      14.084

  Integration load balanced across   128 MPI tasks.
  Work distribution over tasks is as follows:
  Task     0 has       1342 integration points.
  Task     1 has       1353 integration points.
  Task     2 has       1336 integration points.
  Task     3 has       1348 integration points.
  Task     4 has       1380 integration points.
  Task     5 has       1372 integration points.
  Task     6 has       1352 integration points.
  Task     7 has       1391 integration points.
  Task     8 has       1368 integration points.
  Task     9 has       1348 integration points.
  Task    10 has       1387 integration points.
  Task    11 has       1358 integration points.
  Task    12 has       1359 integration points.
  Task    13 has       1371 integration points.
  Task    14 has       1355 integration points.
  Task    15 has       1376 integration points.
  Task    16 has       1362 integration points.
  Task    17 has       1393 integration points.
  Task    18 has       1344 integration points.
  Task    19 has       1351 integration points.
  Task    20 has       1384 integration points.
  Task    21 has       1342 integration points.
  Task    22 has       1373 integration points.
  Task    23 has       1353 integration points.
  Task    24 has       1380 integration points.
  Task    25 has       1340 integration points.
  Task    26 has       1350 integration points.
  Task    27 has       1368 integration points.
  Task    28 has       1361 integration points.
  Task    29 has       1343 integration points.
  Task    30 has       1343 integration points.
  Task    31 has       1377 integration points.
  Task    32 has       1357 integration points.
  Task    33 has       1387 integration points.
  Task    34 has       1355 integration points.
  Task    35 has       1355 integration points.
  Task    36 has       1347 integration points.
  Task    37 has       1383 integration points.
  Task    38 has       1365 integration points.
  Task    39 has       1388 integration points.
  Task    40 has       1373 integration points.
  Task    41 has       1435 integration points.
  Task    42 has       1342 integration points.
  Task    43 has       1368 integration points.
  Task    44 has       1381 integration points.
  Task    45 has       1385 integration points.
  Task    46 has       1351 integration points.
  Task    47 has       1351 integration points.
  Task    48 has       1354 integration points.
  Task    49 has       1394 integration points.
  Task    50 has       1341 integration points.
  Task    51 has       1346 integration points.
  Task    52 has       1343 integration points.
  Task    53 has       1380 integration points.
  Task    54 has       1358 integration points.
  Task    55 has       1393 integration points.
  Task    56 has       1354 integration points.
  Task    57 has       1378 integration points.
  Task    58 has       1370 integration points.
  Task    59 has       1376 integration points.
  Task    60 has       1345 integration points.
  Task    61 has       1377 integration points.
  Task    62 has       1355 integration points.
  Task    63 has       1343 integration points.
  Task    64 has       1382 integration points.
  Task    65 has       1337 integration points.
  Task    66 has       1381 integration points.
  Task    67 has       1386 integration points.
  Task    68 has       1361 integration points.
  Task    69 has       1384 integration points.
  Task    70 has       1384 integration points.
  Task    71 has       1349 integration points.
  Task    72 has       1364 integration points.
  Task    73 has       1377 integration points.
  Task    74 has       1354 integration points.
  Task    75 has       1380 integration points.
  Task    76 has       1357 integration points.
  Task    77 has       1379 integration points.
  Task    78 has       1372 integration points.
  Task    79 has       1390 integration points.
  Task    80 has       1381 integration points.
  Task    81 has       1382 integration points.
  Task    82 has       1347 integration points.
  Task    83 has       1343 integration points.
  Task    84 has       1364 integration points.
  Task    85 has       1346 integration points.
  Task    86 has       1356 integration points.
  Task    87 has       1381 integration points.
  Task    88 has       1369 integration points.
  Task    89 has       1379 integration points.
  Task    90 has       1381 integration points.
  Task    91 has       1344 integration points.
  Task    92 has       1345 integration points.
  Task    93 has       1374 integration points.
  Task    94 has       1352 integration points.
  Task    95 has       1348 integration points.
  Task    96 has       1339 integration points.
  Task    97 has       1361 integration points.
  Task    98 has       1345 integration points.
  Task    99 has       1347 integration points.
  Task   100 has       1355 integration points.
  Task   101 has       1350 integration points.
  Task   102 has       1357 integration points.
  Task   103 has       1341 integration points.
  Task   104 has       1350 integration points.
  Task   105 has       1381 integration points.
  Task   106 has       1380 integration points.
  Task   107 has       1384 integration points.
  Task   108 has       1369 integration points.
  Task   109 has       1338 integration points.
  Task   110 has       1377 integration points.
  Task   111 has       1384 integration points.
  Task   112 has       1347 integration points.
  Task   113 has       1389 integration points.
  Task   114 has       1349 integration points.
  Task   115 has       1343 integration points.
  Task   116 has       1340 integration points.
  Task   117 has       1352 integration points.
  Task   118 has       1383 integration points.
  Task   119 has       1351 integration points.
  Task   120 has       1373 integration points.
  Task   121 has       1364 integration points.
  Task   122 has       1387 integration points.
  Task   123 has       1390 integration points.
  Task   124 has       1396 integration points.
  Task   125 has       1341 integration points.
  Task   126 has       1355 integration points.
  Task   127 has       1345 integration points.
  Available memory per node after partition_grid [GB]:    233.17
  Initializing partition tables, free-atom densities, potentials, etc. across the integration grid (initialize_grid_storage).
  | initialize_grid_storage: Actual outermost partition radius vs. multipole_radius_free
  | (-- VB: in principle, multipole_radius_free should be larger, hence this output)
  | Species        1: Confinement radius =              6.000000000000000 AA, multipole_radius_free =              6.007157080273940 AA.
  | Species        1: outer_partition_radius set to              6.007157080273940 AA .
  | Species        2: Confinement radius =              6.000000000000000 AA, multipole_radius_free =              6.064445521808699 AA.
  | Species        2: outer_partition_radius set to              6.064445521808699 AA .
  | The sparse table of interatomic distances needs       6132.60 kbyte instead of      5780.00 kbyte of memory.
  | Using the partition_type stratmann_smoother will reduce your memory usage.
  | Net number of integration points:   174582
  | of which are non-zero points    :   126287
  | Numerical average free-atom electrostatic potential    :    -12.44840366 eV
  Available memory per node after initialize_grid_storage_p1 [GB]:    233.15
  Renormalizing the initial density to the exact electron count on the 3D integration grid.
  | Initial density: Formal number of electrons (from input files) :      90.0000000000
  | Integrated number of electrons on 3D grid     :      89.9997022342
  | Charge integration error                      :      -0.0002977658
  | Normalization factor for density and gradient :       1.0000033085
  Renormalizing the free-atom superposition density to the exact electron count on the 3D integration grid.
  | Formal number of electrons (from input files) :      90.0000000000
  | Integrated number of electrons on 3D grid     :      89.9997022342
  | Charge integration error                      :      -0.0002977658
  | Normalization factor for density and gradient :       1.0000033085
  Obtaining max. number of non-zero basis functions in each batch (get_n_compute_maxes).
  | Maximal number of non-zero basis functions:     1017 in task     0
  | Maximal number of non-zero basis functions:      990 in task     1
  | Maximal number of non-zero basis functions:     1006 in task     2
  | Maximal number of non-zero basis functions:     1014 in task     3
  | Maximal number of non-zero basis functions:     1041 in task     4
  | Maximal number of non-zero basis functions:     1018 in task     5
  | Maximal number of non-zero basis functions:     1003 in task     6
  | Maximal number of non-zero basis functions:     1024 in task     7
  | Maximal number of non-zero basis functions:     1013 in task     8
  | Maximal number of non-zero basis functions:      995 in task     9
  | Maximal number of non-zero basis functions:     1028 in task    10
  | Maximal number of non-zero basis functions:      991 in task    11
  | Maximal number of non-zero basis functions:      974 in task    12
  | Maximal number of non-zero basis functions:      966 in task    13
  | Maximal number of non-zero basis functions:     1002 in task    14
  | Maximal number of non-zero basis functions:      987 in task    15
  | Maximal number of non-zero basis functions:     1042 in task    16
  | Maximal number of non-zero basis functions:      985 in task    17
  | Maximal number of non-zero basis functions:     1032 in task    18
  | Maximal number of non-zero basis functions:     1021 in task    19
  | Maximal number of non-zero basis functions:     1019 in task    20
  | Maximal number of non-zero basis functions:     1026 in task    21
  | Maximal number of non-zero basis functions:      984 in task    22
  | Maximal number of non-zero basis functions:     1011 in task    23
  | Maximal number of non-zero basis functions:     1020 in task    24
  | Maximal number of non-zero basis functions:     1024 in task    25
  | Maximal number of non-zero basis functions:     1037 in task    26
  | Maximal number of non-zero basis functions:     1015 in task    27
  | Maximal number of non-zero basis functions:     1008 in task    28
  | Maximal number of non-zero basis functions:     1053 in task    29
  | Maximal number of non-zero basis functions:     1037 in task    30
  | Maximal number of non-zero basis functions:     1031 in task    31
  | Maximal number of non-zero basis functions:     1012 in task    32
  | Maximal number of non-zero basis functions:     1018 in task    33
  | Maximal number of non-zero basis functions:     1027 in task    34
  | Maximal number of non-zero basis functions:     1006 in task    35
  | Maximal number of non-zero basis functions:      988 in task    36
  | Maximal number of non-zero basis functions:      976 in task    37
  | Maximal number of non-zero basis functions:      990 in task    38
  | Maximal number of non-zero basis functions:     1012 in task    39
  | Maximal number of non-zero basis functions:     1048 in task    40
  | Maximal number of non-zero basis functions:     1004 in task    41
  | Maximal number of non-zero basis functions:     1057 in task    42
  | Maximal number of non-zero basis functions:      998 in task    43
  | Maximal number of non-zero basis functions:     1004 in task    44
  | Maximal number of non-zero basis functions:     1002 in task    45
  | Maximal number of non-zero basis functions:     1006 in task    46
  | Maximal number of non-zero basis functions:      984 in task    47
  | Maximal number of non-zero basis functions:     1013 in task    48
  | Maximal number of non-zero basis functions:      997 in task    49
  | Maximal number of non-zero basis functions:     1004 in task    50
  | Maximal number of non-zero basis functions:      997 in task    51
  | Maximal number of non-zero basis functions:     1044 in task    52
  | Maximal number of non-zero basis functions:      999 in task    53
  | Maximal number of non-zero basis functions:     1042 in task    54
  | Maximal number of non-zero basis functions:     1008 in task    55
  | Maximal number of non-zero basis functions:     1014 in task    56
  | Maximal number of non-zero basis functions:     1030 in task    57
  | Maximal number of non-zero basis functions:      994 in task    58
  | Maximal number of non-zero basis functions:     1027 in task    59
  | Maximal number of non-zero basis functions:      996 in task    60
  | Maximal number of non-zero basis functions:      987 in task    61
  | Maximal number of non-zero basis functions:     1012 in task    62
  | Maximal number of non-zero basis functions:      985 in task    63
  | Maximal number of non-zero basis functions:      972 in task    64
  | Maximal number of non-zero basis functions:     1001 in task    65
  | Maximal number of non-zero basis functions:     1002 in task    66
  | Maximal number of non-zero basis functions:     1038 in task    67
  | Maximal number of non-zero basis functions:      989 in task    68
  | Maximal number of non-zero basis functions:     1039 in task    69
  | Maximal number of non-zero basis functions:     1028 in task    70
  | Maximal number of non-zero basis functions:     1044 in task    71
  | Maximal number of non-zero basis functions:     1005 in task    72
  | Maximal number of non-zero basis functions:      996 in task    73
  | Maximal number of non-zero basis functions:     1019 in task    74
  | Maximal number of non-zero basis functions:     1025 in task    75
  | Maximal number of non-zero basis functions:      994 in task    76
  | Maximal number of non-zero basis functions:      995 in task    77
  | Maximal number of non-zero basis functions:     1010 in task    78
  | Maximal number of non-zero basis functions:     1025 in task    79
  | Maximal number of non-zero basis functions:     1008 in task    80
  | Maximal number of non-zero basis functions:      985 in task    81
  | Maximal number of non-zero basis functions:     1000 in task    82
  | Maximal number of non-zero basis functions:     1062 in task    83
  | Maximal number of non-zero basis functions:     1027 in task    84
  | Maximal number of non-zero basis functions:     1010 in task    85
  | Maximal number of non-zero basis functions:     1036 in task    86
  | Maximal number of non-zero basis functions:     1006 in task    87
  | Maximal number of non-zero basis functions:      995 in task    88
  | Maximal number of non-zero basis functions:     1046 in task    89
  | Maximal number of non-zero basis functions:     1036 in task    90
  | Maximal number of non-zero basis functions:     1001 in task    91
  | Maximal number of non-zero basis functions:     1006 in task    92
  | Maximal number of non-zero basis functions:     1018 in task    93
  | Maximal number of non-zero basis functions:     1020 in task    94
  | Maximal number of non-zero basis functions:     1030 in task    95
  | Maximal number of non-zero basis functions:     1007 in task    96
  | Maximal number of non-zero basis functions:      996 in task    97
  | Maximal number of non-zero basis functions:     1016 in task    98
  | Maximal number of non-zero basis functions:     1048 in task    99
  | Maximal number of non-zero basis functions:     1029 in task   100
  | Maximal number of non-zero basis functions:      974 in task   101
  | Maximal number of non-zero basis functions:      988 in task   102
  | Maximal number of non-zero basis functions:     1003 in task   103
  | Maximal number of non-zero basis functions:     1016 in task   104
  | Maximal number of non-zero basis functions:     1032 in task   105
  | Maximal number of non-zero basis functions:     1002 in task   106
  | Maximal number of non-zero basis functions:      990 in task   107
  | Maximal number of non-zero basis functions:     1019 in task   108
  | Maximal number of non-zero basis functions:      986 in task   109
  | Maximal number of non-zero basis functions:     1063 in task   110
  | Maximal number of non-zero basis functions:     1000 in task   111
  | Maximal number of non-zero basis functions:     1018 in task   112
  | Maximal number of non-zero basis functions:     1028 in task   113
  | Maximal number of non-zero basis functions:     1052 in task   114
  | Maximal number of non-zero basis functions:      989 in task   115
  | Maximal number of non-zero basis functions:      998 in task   116
  | Maximal number of non-zero basis functions:     1018 in task   117
  | Maximal number of non-zero basis functions:     1017 in task   118
  | Maximal number of non-zero basis functions:     1003 in task   119
  | Maximal number of non-zero basis functions:      975 in task   120
  | Maximal number of non-zero basis functions:      998 in task   121
  | Maximal number of non-zero basis functions:      981 in task   122
  | Maximal number of non-zero basis functions:     1001 in task   123
  | Maximal number of non-zero basis functions:     1014 in task   124
  | Maximal number of non-zero basis functions:     1017 in task   125
  | Maximal number of non-zero basis functions:      999 in task   126
  | Maximal number of non-zero basis functions:     1003 in task   127
  Available memory per node after get_n_compute_maxes_p1 [GB]:    232.94
  Available memory per node after allocate_matrices [GB]:    232.93
  Available memory per node after init_comm_sparse_local_matrix_scalapack [GB]:    232.93
  Integrating Hamiltonian matrix: batch-based integration.

  Entering Libmbd.
  Libmbd: VdW method: ts
  Libmbd: Performing Hirshfeld analysis...

  Performing Hirshfeld analysis of fragment charges and moments.
  ----------------------------------------------------------------------
  | Atom     1: Si
  |   Hirshfeld charge        :     -0.00004632
  |   Free atom volume        :    102.74726785
  |   Hirshfeld volume        :    102.74760779
  |   Hirshfeld dipole vector :      0.00000000       0.00000000       0.00000000
  |   Hirshfeld dipole moment :      0.00000000
  |   Hirshfeld second moments:     -0.00000990      -0.00000000      -0.00000000
  |                                 -0.00000000      -0.00000990      -0.00000000
  |                                 -0.00000000      -0.00000000      -0.00000990
  ----------------------------------------------------------------------
  | Atom     2: Si
  |   Hirshfeld charge        :     -0.00004632
  |   Free atom volume        :    102.74726785
  |   Hirshfeld volume        :    102.74760779
  |   Hirshfeld dipole vector :      0.00000000       0.00000000      -0.00000000
  |   Hirshfeld dipole moment :      0.00000000
  |   Hirshfeld second moments:     -0.00000990       0.00000000       0.00000000
  |                                  0.00000000      -0.00000990       0.00000000
  |                                  0.00000000       0.00000000      -0.00000990
  ----------------------------------------------------------------------
  | Atom     3: Si
  |   Hirshfeld charge        :     -0.00004632
  |   Free atom volume        :    102.74726785
  |   Hirshfeld volume        :    102.74760779
  |   Hirshfeld dipole vector :      0.00000000      -0.00000000      -0.00000000
  |   Hirshfeld dipole moment :      0.00000000
  |   Hirshfeld second moments:     -0.00000990      -0.00000000       0.00000000
  |                                 -0.00000000      -0.00000990       0.00000000
  |                                  0.00000000       0.00000000      -0.00000990
  ----------------------------------------------------------------------
  | Atom     4: O
  |   Hirshfeld charge        :     -0.00002647
  |   Free atom volume        :     23.74229847
  |   Hirshfeld volume        :     23.74237703
  |   Hirshfeld dipole vector :      0.00000000       0.00000000      -0.00000000
[...]
  |   Hirshfeld dipole moment :      0.04119557
  |   Hirshfeld second moments:     -0.00486419      -0.01528828      -0.01730897
  |                                 -0.01528828       0.00582537      -0.01035301
  |                                 -0.01730897      -0.01035301       0.00147280
  ----------------------------------------------------------------------

  Libmbd: Calculating MBD energy...
  Libmbd: Evaluated energy: -0.41857108856814498E-001

  Leaving Libmbd.


  Total energy components:
  | Sum of eigenvalues            :        -746.19263895 Ha      -20304.93480961 eV
  | XC energy correction          :        -114.86312835 Ha       -3125.58475050 eV
  | XC potential correction       :         148.13251376 Ha        4030.89078889 eV
  | Free-atom electrostatic energy:        -601.65579914 Ha      -16371.88728709 eV
  | Hartree energy correction     :          -7.09577491 Ha        -193.08585944 eV
  | vdW energy correction         :          -0.04185711 Ha          -1.13898988 eV
  | vdW potential correction      :           0.04504690 Ha           1.22578858 eV
  | Entropy correction            :          -0.00000000 Ha          -0.00000000 eV
  | ---------------------------
  | Total energy                  :       -1321.67163780 Ha      -35964.51511905 eV
  | Total energy, T -> 0          :       -1321.67163780 Ha      -35964.51511905 eV  <-- do not rely on this value for anything but (periodic) metals
  | Electronic free energy        :       -1321.67163780 Ha      -35964.51511905 eV

  Derived energy quantities:
  | Kinetic energy                :        1331.73859410 Ha       36238.45093761 eV
  | Electrostatic energy          :       -2538.55029335 Ha      -69077.46810486 eV
  | Energy correction for multipole
  | error in Hartree potential    :          -0.01613726 Ha          -0.43911724 eV
  | Sum of eigenvalues per atom                           :       -2256.10386773 eV
  | Total energy (T->0) per atom                          :       -3996.05723545 eV  <-- do not rely on this value for anything but (periodic) metals
  | Electronic free energy per atom                       :       -3996.05723545 eV

  atomic forces [eV/Ang]:
  -----------------------
  atom #    1
   Hellmann-Feynman              :  0.384254E+01 -0.150171E+02 -0.241744E+02
   Ionic forces                  :  0.000000E+00  0.000000E+00  0.000000E+00
   Multipole                     :  0.579678E-01 -0.580984E-01 -0.166331E+00
   Hartree pot. SCF incomplete   : -0.180346E-05  0.306848E-06  0.890992E-06
   Pulay + GGA                   :  0.129506E+02  0.247740E+01  0.639216E+01
   Van der Waals                 :  0.241500E-01  0.221034E-01 -0.394224E-01
   ----------------------------------------------------------------
   Total forces(   1)            :  0.168752E+02 -0.125757E+02 -0.179880E+02
  atom #    2
   Hellmann-Feynman              :  0.384254E+01  0.150171E+02  0.241744E+02
   Ionic forces                  :  0.000000E+00  0.000000E+00  0.000000E+00
   Multipole                     :  0.579679E-01  0.580984E-01  0.166331E+00
   Hartree pot. SCF incomplete   : -0.180345E-05 -0.306878E-06 -0.891003E-06
   Pulay + GGA                   :  0.129506E+02 -0.247740E+01 -0.639216E+01
   Van der Waals                 :  0.241500E-01 -0.221034E-01  0.394224E-01
   ----------------------------------------------------------------
   Total forces(   2)            :  0.168752E+02  0.125757E+02  0.179880E+02
  atom #    3
   Hellmann-Feynman              : -0.272158E+01 -0.906976E-06 -0.123772E-05
   Ionic forces                  :  0.000000E+00  0.000000E+00  0.000000E+00
   Multipole                     :  0.990979E-01 -0.399512E-08 -0.695320E-08
   Hartree pot. SCF incomplete   : -0.622418E-06 -0.328229E-10 -0.198591E-11
   Pulay + GGA                   : -0.284713E+02 -0.571940E-06 -0.654281E-06
   Van der Waals                 : -0.217384E-01  0.364599E-09  0.157186E-08
   ----------------------------------------------------------------
   Total forces(   3)            : -0.311156E+02 -0.148258E-05 -0.189739E-05
  atom #    4
   Hellmann-Feynman              :  0.111095E+02  0.864846E+01  0.104308E+02
   Ionic forces                  :  0.000000E+00  0.000000E+00  0.000000E+00
   Multipole                     :  0.492832E-01  0.871039E-02 -0.181869E-01
   Hartree pot. SCF incomplete   :  0.175283E-05  0.278819E-06  0.702541E-06
   Pulay + GGA                   : -0.443102E+01 -0.487358E+01 -0.552943E+01
   Van der Waals                 : -0.375955E-03  0.586036E-02  0.645977E-02
   ----------------------------------------------------------------
   Total forces(   4)            :  0.672736E+01  0.378945E+01  0.488966E+01
  atom #    5
   Hellmann-Feynman              :  0.224649E+02 -0.151771E+02 -0.204387E+02
   Ionic forces                  :  0.000000E+00  0.000000E+00  0.000000E+00
   Multipole                     : -0.978563E-01  0.607324E-01  0.127332E+00
   Hartree pot. SCF incomplete   : -0.249817E-05  0.126535E-05 -0.725291E-06
   Pulay + GGA                   : -0.499445E+01  0.167050E+01  0.271742E+01
   Van der Waals                 :  0.521695E-02  0.524186E-02  0.388165E-01
   ----------------------------------------------------------------
   Total forces(   5)            :  0.173779E+02 -0.134407E+02 -0.175551E+02
  atom #    6
   Hellmann-Feynman              : -0.284218E+02 -0.890578E+01 -0.112140E+02
   Ionic forces                  :  0.000000E+00  0.000000E+00  0.000000E+00
   Multipole                     : -0.240570E+00  0.333649E-01  0.142365E+00
   Hartree pot. SCF incomplete   :  0.301177E-05  0.332850E-06 -0.840462E-06
   Pulay + GGA                   :  0.326170E+01 -0.116549E+01 -0.159150E+01
   Van der Waals                 : -0.181218E-01 -0.239866E-01  0.139556E-01
   ----------------------------------------------------------------
   Total forces(   6)            : -0.254188E+02 -0.100619E+02 -0.126492E+02
  atom #    7
   Hellmann-Feynman              :  0.111095E+02 -0.864846E+01 -0.104308E+02
   Ionic forces                  :  0.000000E+00  0.000000E+00  0.000000E+00
   Multipole                     :  0.492832E-01 -0.871039E-02  0.181870E-01
   Hartree pot. SCF incomplete   :  0.175283E-05 -0.278805E-06 -0.702537E-06
   Pulay + GGA                   : -0.443102E+01  0.487358E+01  0.552944E+01
   Van der Waals                 : -0.375955E-03 -0.586036E-02 -0.645977E-02
   ----------------------------------------------------------------
   Total forces(   7)            :  0.672736E+01 -0.378945E+01 -0.488966E+01
  atom #    8
   Hellmann-Feynman              : -0.284218E+02  0.890578E+01  0.112140E+02
   Ionic forces                  :  0.000000E+00  0.000000E+00  0.000000E+00
   Multipole                     : -0.240571E+00 -0.333650E-01 -0.142365E+00
   Hartree pot. SCF incomplete   :  0.301176E-05 -0.332843E-06  0.840471E-06
   Pulay + GGA                   :  0.326170E+01  0.116549E+01  0.159150E+01
   Van der Waals                 : -0.181218E-01  0.239866E-01 -0.139556E-01
   ----------------------------------------------------------------
   Total forces(   8)            : -0.254188E+02  0.100619E+02  0.126492E+02
  atom #    9
   Hellmann-Feynman              :  0.224649E+02  0.151771E+02  0.204387E+02
   Ionic forces                  :  0.000000E+00  0.000000E+00  0.000000E+00
   Multipole                     : -0.978563E-01 -0.607324E-01 -0.127332E+00
   Hartree pot. SCF incomplete   : -0.249817E-05 -0.126535E-05  0.725293E-06
   Pulay + GGA                   : -0.499445E+01 -0.167050E+01 -0.271742E+01
   Van der Waals                 :  0.521695E-02 -0.524186E-02 -0.388165E-01
   ----------------------------------------------------------------
   Total forces(   9)            :  0.173779E+02  0.134407E+02  0.175551E+02


  Analytical stress tensor components [eV]         xx                  yy                  zz                  xy                  xz                  yz
  -----------------------------------------------------------------------------------------------------------------------------------------------------------
    Nuclear Hellmann-Feynman      :    -0.3401294604E+03   -0.1334579938E+03   -0.1658794198E+03    0.1388197758E-05    0.1556310051E-05   -0.9205241513E+02
    Multipole Hellmann-Feynman    :    -0.5292471014E+03   -0.1826882784E+03   -0.2591932803E+03    0.2124789981E-05    0.2464509945E-05   -0.1802855099E+03
    On-site Multipole corrections :    -0.7209851478E-01   -0.7252208295E-01   -0.7036181535E-01    0.3441603582E-10   -0.4600244564E-09    0.1513584797E-02
    Strain deriv. of the orbitals :     0.7351514647E+03    0.2793495710E+03    0.3676399446E+03   -0.4412935908E-05   -0.5111049004E-05    0.2249840034E+03
    vdW correction                :     0.1389504794E+01    0.1241392610E+01    0.1046624363E+01    0.1557826449E-08    0.3170259344E-08   -0.9835183410E-01
  -----------------------------------------------------------------------------------------------------------------------------------------------------------
  Sum of all contributions        :    -0.1329076908E+03   -0.3562783071E+02   -0.5645649294E+02   -0.8983559271E-06   -0.1087518773E-05   -0.4745075989E+02

  +-------------------------------------------------------------------+
  |              Analytical stress tensor - Symmetrized               |
  |                  Cartesian components [eV/A**3]                   |
  +-------------------------------------------------------------------+
  |                x                y                z                |
  |                                                                   |
  |  x        -1.17298345      -0.00000001      -0.00000001           |
  |  y        -0.00000001      -0.31443520      -0.41877905           |
  |  z        -0.00000001      -0.41877905      -0.49825959           |
  |                                                                   |
  |  Pressure:       0.66189275   [eV/A**3]                           |
  |                                                                   |
  +-------------------------------------------------------------------+

 * Warning: Stress tensor is anisotropic. Be aware that pressure is an isotropic quantity.

  Timings for VdW correction (Tkatchenko-Scheffler 2009 or later):
  | CPU time:        0.444 s, Wall clock time:        0.402 s.
  Removing unitary transformations (pure translations, rotations) from forces on atoms.
  Atomic forces before filtering:
  | Net force on center of mass :   0.783214E-02  0.122209E-07  0.694354E-08 eV/A
  Atomic forces after filtering:
  | Net force on center of mass :   0.285450E-14  0.570900E-14 -0.570900E-14 eV/A

  Energy and forces in a compact form:
  | Total energy uncorrected      :         -0.359645151190467E+05 eV
  | Total energy corrected        :         -0.359645151190467E+05 eV  <-- do not rely on this value for anything but (periodic) metals
  | Electronic free energy        :         -0.359645151190467E+05 eV
  Total atomic forces (unitary forces cleaned) [eV/Ang]:
  |    1          0.168743636311008E+02         -0.125756508559905E+02         -0.179879944497339E+02
  |    2          0.168743615122942E+02          0.125756509755164E+02          0.179879945836828E+02
  |    3         -0.311164261927097E+02         -0.148393712628519E-05         -0.189815950965431E-05
  |    4          0.672648790146957E+01          0.378944838036434E+01          0.488965716272279E+01
  |    5          0.173769854967785E+02         -0.134406657510535E+02         -0.175550974803635E+02
  |    6         -0.254196238052732E+02         -0.100618930139382E+02         -0.126491852472299E+02
  |    7          0.672648804947603E+01         -0.378944853432029E+01         -0.488965732421372E+01
  |    8         -0.254196252965546E+02          0.100618931577735E+02          0.126491854151834E+02
  |    9          0.173769887034184E+02          0.134406671255854E+02          0.175550992381115E+02

  ------------------------------------ 
  Start decomposition of the XC Energy 
  ------------------------------------ 
  X and C from original XC functional choice 
  Hartree-Fock Energy :          0.000000000 Ha              0.000000000 eV
  X Energy            :       -111.492400975 Ha          -3033.862591755 eV
  C Energy            :         -3.370727379 Ha            -91.722158742 eV
  XC Energy w/o HF    :       -114.863128353 Ha          -3125.584750497 eV
  Total XC Energy     :       -114.863128353 Ha          -3125.584750497 eV
  ------------------------------------ 
  LDA X and C from self-consistent density 
  X Energy LDA        :       -102.580910562 Ha          -2791.368599654 eV
  C Energy LDA        :         -6.654237212 Ha           -181.071007332 eV
  ------------------------------------ 
  End decomposition of the XC Energy 
  ------------------------------------ 

------------------------------------------------------------

------------------------------------------------------------------------------
  Final output of selected total energy values:

  The following output summarizes some interesting total energy values
  at the end of a run (AFTER all relaxation, molecular dynamics, etc.).

  | Total energy of the DFT / Hartree-Fock s.c.f. calculation      :         -35964.515119047 eV
  | Final zero-broadening corrected energy (caution - metals only) :         -35964.515119047 eV
  | For reference only, the value of 1 Hartree used in FHI-aims is :             27.211384500 eV
  | For reference only, the overall average (free atom contribution
  | + realspace contribution) of the electrostatic potential after
  | s.c.f. convergence is                                          :            -12.112836947 eV

  Before relying on these values, please be sure to understand exactly which
  total energy value is referred to by a given number. Different objects may
  all carry the same name 'total energy'. Definitions:

  Total energy of the DFT / Hartree-Fock s.c.f. calculation:
  | Note that this energy does not include ANY quantities calculated after the
  | s.c.f. cycle, in particular not ANY RPA, MP2, etc. many-body perturbation terms.

  Final zero-broadening corrected energy:
  | For metallic systems only, a broadening of the occupation numbers at the Fermi
  | level can be extrapolated back to zero broadening by an electron-gas inspired
  | formula. For all systems that are not real metals, this value can be
  | meaningless and should be avoided.

------------------------------------------------------------------------------
  Methods described in the following list of references were used in this FHI-aims run.
  If you publish the results, please make sure to cite these reference if they apply.
  FHI-aims is an academic code, and for our developers (often, Ph.D. students
  and postdocs), scientific credit in the community is essential.
  Thank you for helping us!

  For any use of FHI-aims, please cite:

    Volker Blum, Ralf Gehrke, Felix Hanke, Paula Havu, Ville Havu,
    Xinguo Ren, Karsten Reuter, and Matthias Scheffler
    'Ab initio molecular simulations with numeric atom-centered orbitals'
    Computer Physics Communications 180, 2175-2196 (2009)
    http://doi.org/10.1016/j.cpc.2009.06.022


  For the analytical stress tensor used in your run, please cite:

    Franz Knuth, Christian Carbogno, Viktor Atalla, Volker Blum, Matthias Scheffler
    'All-electron formalism for total energy strain derivatives and
    stress tensor components for numeric atom-centered orbitals'
    Computer Physics Communications 190, 33-50 (2015).
    http://doi.org/10.1016/j.cpc.2015.01.003


  The provided symmetry information was generated with SPGlib:

    Atsushi Togo, Yusuke Seto, Dimitar Pashov
    SPGlib 1.7.3 obtained from http://spglib.sourceforge.net
    Licence: New BSD license
    Copyright (C) 2008 Atsushi Togo


  The ELSI infrastructure was used in your run to solve the Kohn-Sham electronic structure.
  Please check out https://wordpress.elsi-interchange.org to learn more.
  If scalability is important for your project, please acknowledge ELSI by citing:

    V. W-z. Yu, F. Corsetti, A. Garcia, W. P. Huhn, M. Jacquelin, W. Jia,
    B. Lange, L. Lin, J. Lu, W. Mi, A. Seifitokaldani, A. Vazquez-Mayagoitia,
    C. Yang, H. Yang, and V. Blum
    'ELSI: A unified software interface for Kohn-Sham electronic structure solvers'
    Computer Physics Communications 222, 267-285 (2018).
   http://doi.org/10.1016/j.cpc.2017.09.007


  For the real-space grid partitioning and parallelization used in this calculation, please cite:

    Ville Havu, Volker Blum, Paula Havu, and Matthias Scheffler,
    'Efficient O(N) integration for all-electron electronic structure calculation'
    'using numerically tabulated basis functions'
    Journal of Computational Physics 228, 8367-8379 (2009).
    http://doi.org/10.1016/j.jcp.2009.08.008

  Of course, there are many other important community references, e.g., those cited in the
  above references. Our list is limited to references that describe implementations in the
  FHI-aims code. The reason is purely practical (length of this list) - please credit others as well.

------------------------------------------------------------
          Leaving FHI-aims.
          Date     :  20240827, Time     :  173343.053

          Computational steps:
          | Number of self-consistency cycles          :           19
          | Number of SCF (re)initializations          :            1

          Detailed time accounting                     :  max(cpu_time)    wall_clock(cpu1)
          | Total time                                  :       52.995 s          53.142 s
          | Preparation time                            :        0.303 s           0.300 s
          | Boundary condition initalization            :        0.125 s           0.126 s
          | Grid partitioning                           :        0.152 s           0.148 s
          | Preloading free-atom quantities on grid     :        0.298 s           0.317 s
          | Free-atom superposition energy              :        0.024 s           0.024 s
          | Total time for integrations                 :       11.419 s          11.419 s
          | Total time for solution of K.-S. equations  :        0.245 s           0.240 s
          | Total time for density & force components   :       28.111 s          28.109 s
          | Total time for mixing                       :        0.792 s           0.072 s
          | Total time for Hartree multipole update     :        0.049 s           0.055 s
          | Total time for Hartree multipole sum        :        2.803 s           2.803 s
          | Total time for total energy evaluation      :        0.009 s           0.326 s
          | Total time NSC force correction             :        1.043 s           1.043 s
          | Total time for scaled ZORA corrections      :        0.000 s           0.000 s
          | Total time for vdW correction               :        0.444 s           0.402 s

          Partial memory accounting:
          | Residual value for overall tracked memory usage across tasks:     0.000000 MB (should be 0.000000 MB)
          | Peak values for overall tracked memory usage:
          |   Minimum:       32.542 MB (on task  13 after allocating d_wave)
          |   Maximum:       35.793 MB (on task 110 after allocating d_wave)
          |   Average:       34.044 MB
          | Largest tracked array allocation:
          |   Minimum:        7.119 MB (hamiltonian_shell on task  13)
          |   Maximum:        8.621 MB (hamiltonian_shell on task 110)
          |   Average:        7.806 MB
          Note:  These values currently only include a subset of arrays which are explicitly tracked.
          The "true" memory usage will be greater.

          Have a nice day.
------------------------------------------------------------
