********************************************************************************
*                       GENERAL UTILITY LATTICE PROGRAM                        *
*                                 Julian Gale                                  *
*                       Curtin Institute for Computation                       *
*                    School of Molecular and Life Sciences                     *
*                    Curtin University, Western Australia                      *
********************************************************************************
* Version = 5.2.0 * Last modified =  10th September 2020                       *
********************************************************************************
*  optimise     - perform optimisation run                                     *
*  conp         - constant pressure calculation                                *
*  property     - calculate properties for final geometry                      *
*  compare      - compare initial and final structures                         *
********************************************************************************

  Job Started  at 11:12.34 20th September  2023                               

  Number of CPUs =     1

  Host name      = b001                                    


  Total number of configurations input =      1

********************************************************************************
*  Input for Configuration =   1                                               *
********************************************************************************

  Formula = Mg4O4                                                       

  Number of irreducible atoms/shells =      16


  Total number atoms/shells =      16

  Dimensionality = 3               :  Bulk   



  Cartesian lattice vectors (Angstroms) :

        4.211200    0.000000    0.000000
        0.000000    4.211200    0.000000
        0.000000    0.000000    5.312000

  Cell parameters (Angstroms/Degrees):

  a =       4.2112    alpha =  90.0000
  b =       4.2112    beta  =  90.0000
  c =       5.3120    gamma =  90.0000

  Initial cell volume =          94.204099 Angs**3

  Temperature of configuration =   0.00     K 

  Pressure of configuration =         0.000 GPa 

  Fractional coordinates of asymmetric unit :

--------------------------------------------------------------------------------
   No.  Atomic       x           y          z         Charge      Occupancy
        Label      (Frac)      (Frac)     (Frac)        (e)         (Frac)  
--------------------------------------------------------------------------------
      1 Mg    c    0.000000    0.000000    0.000000     2.12300    1.000000    
      2 Mg    c    0.500000 *  0.500000 *  0.000000 *   2.12300    1.000000    
      3 Mg    c    0.500000 *  0.000000 *  0.500000 *   2.12300    1.000000    
      4 Mg    c    0.000000 *  0.500000 *  0.500000 *   2.12300    1.000000    
      5 O     c    0.500000 *  0.000000 *  0.000000 *   0.89502    1.000000    
      6 O     c    0.000000 *  0.500000 *  0.000000 *   0.89502    1.000000    
      7 O     c    0.000000 *  0.000000 *  0.500000 *   0.89502    1.000000    
      8 O     c    0.500000 *  0.500000 *  0.500000 *   0.89502    1.000000    
      9 Mg    s    0.000000 *  0.000000 *  0.000000 *  -0.12300    1.000000    
     10 Mg    s    0.500000 *  0.500000 *  0.000000 *  -0.12300    1.000000    
     11 Mg    s    0.500000 *  0.000000 *  0.500000 *  -0.12300    1.000000    
     12 Mg    s    0.000000 *  0.500000 *  0.500000 *  -0.12300    1.000000    
     13 O     s    0.500000 *  0.000000 *  0.000000 *  -2.89502    1.000000    
     14 O     s    0.000000 *  0.500000 *  0.000000 *  -2.89502    1.000000    
     15 O     s    0.000000 *  0.000000 *  0.500000 *  -2.89502    1.000000    
     16 O     s    0.500000 *  0.500000 *  0.500000 *  -2.89502    1.000000    
--------------------------------------------------------------------------------



********************************************************************************
*  General input information                                                   *
********************************************************************************

  Species output for all configurations : 

--------------------------------------------------------------------------------
  Species    Type    Atomic    Atomic    Charge       Radii (Angs)     Library
                     Number     Mass       (e)     Cova   Ionic  VDW   Symbol
--------------------------------------------------------------------------------
    Mg       Core       12      24.31   2.123000   1.100  0.000  1.640          
    Mg       Shell      12       0.00  -0.123000   1.100  0.000  0.000          
    O        Core        8      16.00   0.895020   0.730  0.000  1.360          
    O        Shell       8       0.00  -2.895020   0.730  0.000  0.000          
--------------------------------------------------------------------------------


  Lattice summation method               =    Ewald          (3-D)
                                         =    Parry          (2-D)
                                         =    Saunders et al (1-D)
  Accuracy factor for lattice sums       =   12.000


  Analytic derivatives to be used

  Time limit = Infinity

  Maximum range for interatomic potentials =    100000.000000 Angstroms

  General interatomic potentials :

--------------------------------------------------------------------------------
Atom  Types   Potential      Parameter       Value         Units   Cutoffs(Ang)
  1     2                                                            Min /  Max 
--------------------------------------------------------------------------------
O    s O    s Buckingham    Buckingham A     22764.000    eV        0.000 12.000
                            Buckingham rho  0.14900000    Ang       
                            Buckingham C     6.9700000    eV*Ang^6  
--------------------------------------------------------------------------------
O    s Mg   s Buckingham    Buckingham A     941.50000    eV        0.000 12.000
                            Buckingham rho  0.29453000    Ang       
                            Buckingham C     0.0000000    eV*Ang^6  
--------------------------------------------------------------------------------
O    c O    s Spring (c-s)  Spring k 2       74.920000    eV*Ang^-2 0.000  0.800
                            Spring k 4       0.0000000    eV*Ang^-4 
--------------------------------------------------------------------------------
Mg   c Mg   s Spring (c-s)  Spring k 2       142.00000    eV*Ang^-2 0.000  0.800
                            Spring k 4       0.0000000    eV*Ang^-4 
--------------------------------------------------------------------------------

********************************************************************************
*  Output for configuration   1                                                *
********************************************************************************


  Components of energy : 

--------------------------------------------------------------------------------
  Interatomic potentials     =          12.60746396 eV    
  Monopole - monopole (real) =         -54.50148292 eV    
  Monopole - monopole (recip)=        -126.81794301 eV    
  Monopole - monopole (total)=        -181.31942593 eV    
--------------------------------------------------------------------------------
  Total lattice energy       =        -168.71196196 eV    
--------------------------------------------------------------------------------
  Total lattice energy       =          -16278.1253 kJ/(mole unit cells)
--------------------------------------------------------------------------------


  Number of variables =       51

  Maximum number of calculations  =          1000
  Maximum Hessian update interval =            10
  Maximum step size               =   1.000000000
  Maximum parameter tolerance     =   0.000010000
  Maximum function  tolerance     =   0.000010000
  Maximum gradient  tolerance     =   0.000010000
  Maximum gradient  component     =   0.010000000

  Symmetry not applied to optimisation

  Cell parameters to be optimised using strains

  Newton-Raphson optimiser to be used

  BFGS hessian update to be used

  Lower half triangular hessian to be used

  Start of bulk optimisation :

  Cycle:      0 Energy:      -168.711962  Gnorm:      1.050316  CPU:    0.007
  ** Hessian calculated **
  Cycle:      1 Energy:      -174.867065  Gnorm:      0.260211  CPU:    0.010
  Cycle:      2 Energy:      -174.893212  Gnorm:      0.186408  CPU:    0.015
  ** Hessian calculated **
  Cycle:      3 Energy:      -176.141850  Gnorm:      0.288653  CPU:    0.023
  ** Hessian calculated **
  Cycle:      4 Energy:      -176.484751  Gnorm:      0.012418  CPU:    0.030
  Cycle:      5 Energy:      -176.487920  Gnorm:      0.003782  CPU:    0.035
  Cycle:      6 Energy:      -176.487979  Gnorm:      0.000050  CPU:    0.038


  **** Optimisation achieved ****


  Final energy =    -176.48797901 eV
  Final Gnorm  =       0.00000559

  Components of energy : 

--------------------------------------------------------------------------------
  Interatomic potentials     =          31.21208891 eV    
  Monopole - monopole (real) =         -59.02205410 eV    
  Monopole - monopole (recip)=        -148.67801382 eV    
  Monopole - monopole (total)=        -207.70006792 eV    
--------------------------------------------------------------------------------
  Total lattice energy       =        -176.48797901 eV    
--------------------------------------------------------------------------------
  Total lattice energy       =          -17028.3921 kJ/(mole unit cells)
--------------------------------------------------------------------------------

  Final fractional coordinates of atoms :

--------------------------------------------------------------------------------
   No.  Atomic        x           y          z          Radius
        Label       (Frac)      (Frac)     (Frac)       (Angs) 
--------------------------------------------------------------------------------
     1  Mg    c     0.000000    0.000000    0.000000    0.000000
     2  Mg    c     0.500000    0.500000    0.000000    0.000000
     3  Mg    c     0.500000    0.000000    0.500000    0.000000
     4  Mg    c     1.000000    0.500000    0.500000    0.000000
     5  O     c     0.500000    1.000000    0.000000    0.000000
     6  O     c     0.000000    0.500000    0.000000    0.000000
     7  O     c     0.000000    1.000000    0.500000    0.000000
     8  O     c     0.500000    0.500000    0.500000    0.000000
     9  Mg    s     1.000000    0.000000    0.000000    0.000000
    10  Mg    s     0.500000    0.500000    0.000000    0.000000
    11  Mg    s     0.500000    0.000000    0.500000    0.000000
    12  Mg    s     1.000000    0.500000    0.500000    0.000000
    13  O     s     0.500000    1.000000    0.000000    0.000000
    14  O     s     0.000000    0.500000    0.000000    0.000000
    15  O     s     0.000000    1.000000    0.500000    0.000000
    16  O     s     0.500000    0.500000    0.500000    0.000000
--------------------------------------------------------------------------------

  Final Cartesian lattice vectors (Angstroms) :

        3.877052    0.000000    0.000000
        0.000000    3.877052    0.000000
        0.000000    0.000000    3.877055


  Final cell parameters and derivatives :

--------------------------------------------------------------------------------
       a            3.877052 Angstrom     dE/de1(xx)     0.000148 eV/strain
       b            3.877052 Angstrom     dE/de2(yy)     0.000148 eV/strain
       c            3.877055 Angstrom     dE/de3(zz)     0.000193 eV/strain
       alpha       90.000000 Degrees      dE/de4(yz)    -0.000000 eV/strain
       beta        90.000000 Degrees      dE/de5(xz)     0.000000 eV/strain
       gamma       90.000000 Degrees      dE/de6(xy)     0.000000 eV/strain
--------------------------------------------------------------------------------

  Primitive cell volume =            58.278095 Angs**3

  Density of cell =      4.594343 g/cm**3

  Non-primitive cell volume =            58.278095 Angs**3


  Final internal derivatives :

--------------------------------------------------------------------------------
   No.  Atomic          a             b             c           Radius
        Label          (eV)          (eV)          (eV)        (eV/Angs)
--------------------------------------------------------------------------------
      1 Mg    c       0.000000      0.000000      0.000000      0.000000
      2 Mg    c      -0.000000     -0.000000     -0.000000      0.000000
      3 Mg    c      -0.000000      0.000000     -0.000000      0.000000
      4 Mg    c       0.000000     -0.000000      0.000000      0.000000
      5 O     c      -0.000000      0.000000     -0.000000      0.000000
      6 O     c      -0.000000     -0.000000     -0.000000      0.000000
      7 O     c      -0.000000      0.000000      0.000000      0.000000
      8 O     c       0.000000     -0.000000      0.000000      0.000000
      9 Mg    s      -0.000000     -0.000000     -0.000000      0.000000
     10 Mg    s       0.000000      0.000000     -0.000000      0.000000
     11 Mg    s       0.000000     -0.000000      0.000000      0.000000
     12 Mg    s      -0.000000      0.000000     -0.000000      0.000000
     13 O     s      -0.000000      0.000000     -0.000000      0.000000
     14 O     s       0.000000     -0.000000     -0.000000      0.000000
     15 O     s      -0.000000      0.000000      0.000000      0.000000
     16 O     s       0.000000     -0.000000      0.000000      0.000000
--------------------------------------------------------------------------------
  Maximum abs         0.000000      0.000000      0.000000      0.000000
--------------------------------------------------------------------------------

  Comparison of initial and final structures : 

--------------------------------------------------------------------------------
  Parameter   Initial value   Final value   Difference    Units      Percent
--------------------------------------------------------------------------------
    Volume        94.204099     58.278095   -35.926004    Angs**3    -38.14
    a              4.211200      3.877052    -0.334148    Angstroms   -7.93
    b              4.211200      3.877052    -0.334148    Angstroms   -7.93
    c              5.312000      3.877055    -1.434945    Angstroms  -27.01
    alpha         90.000000     90.000000     0.000000    Degrees      0.00
    beta          90.000000     90.000000     0.000000    Degrees      0.00
    gamma         90.000000     90.000000     0.000000    Degrees      0.00
      1 x          0.000000      0.000000     0.000000    Fractional   0.00
      1 y          0.000000      0.000000     0.000000    Fractional   0.00
      1 z          0.000000      0.000000     0.000000    Fractional   0.00
      2 x          0.500000      0.500000     0.000000    Fractional   0.00
      2 y          0.500000      0.500000     0.000000    Fractional   0.00
      2 z          0.000000      0.000000     0.000000    Fractional   0.00
      3 x          0.500000      0.500000     0.000000    Fractional   0.00
      3 y          0.000000      0.000000     0.000000    Fractional   0.00
      3 z          0.500000      0.500000     0.000000    Fractional   0.00
      4 x          0.000000      1.000000     1.000000    Fractional   0.00
      4 y          0.500000      0.500000     0.000000    Fractional   0.00
      4 z          0.500000      0.500000     0.000000    Fractional   0.00
      5 x          0.500000      0.500000     0.000000    Fractional   0.00
      5 y          0.000000      1.000000     1.000000    Fractional   0.00
      5 z          0.000000      0.000000     0.000000    Fractional   0.00
      6 x          0.000000      0.000000     0.000000    Fractional   0.00
      6 y          0.500000      0.500000     0.000000    Fractional   0.00
      6 z          0.000000      0.000000     0.000000    Fractional   0.00
      7 x          0.000000      0.000000     0.000000    Fractional   0.00
      7 y          0.000000      1.000000     1.000000    Fractional   0.00
      7 z          0.500000      0.500000     0.000000    Fractional   0.00
      8 x          0.500000      0.500000     0.000000    Fractional   0.00
      8 y          0.500000      0.500000     0.000000    Fractional   0.00
      8 z          0.500000      0.500000     0.000000    Fractional   0.00
      9 x          0.000000      1.000000     1.000000    Fractional   0.00
      9 y          0.000000      0.000000     0.000000    Fractional   0.00
      9 z          0.000000      0.000000     0.000000    Fractional   0.00
     10 x          0.500000      0.500000     0.000000    Fractional   0.00
     10 y          0.500000      0.500000     0.000000    Fractional   0.00
     10 z          0.000000      0.000000     0.000000    Fractional   0.00
     11 x          0.500000      0.500000     0.000000    Fractional   0.00
     11 y          0.000000      0.000000     0.000000    Fractional   0.00
     11 z          0.500000      0.500000     0.000000    Fractional   0.00
     12 x          0.000000      1.000000     1.000000    Fractional   0.00
     12 y          0.500000      0.500000     0.000000    Fractional   0.00
     12 z          0.500000      0.500000     0.000000    Fractional   0.00
     13 x          0.500000      0.500000     0.000000    Fractional   0.00
     13 y          0.000000      1.000000     1.000000    Fractional   0.00
     13 z          0.000000      0.000000     0.000000    Fractional   0.00
     14 x          0.000000      0.000000     0.000000    Fractional   0.00
     14 y          0.500000      0.500000     0.000000    Fractional   0.00
     14 z          0.000000      0.000000     0.000000    Fractional   0.00
     15 x          0.000000      0.000000     0.000000    Fractional   0.00
     15 y          0.000000      1.000000     1.000000    Fractional   0.00
     15 z          0.500000      0.500000     0.000000    Fractional   0.00
     16 x          0.500000      0.500000     0.000000    Fractional   0.00
     16 y          0.500000      0.500000     0.000000    Fractional   0.00
     16 z          0.500000      0.500000     0.000000    Fractional   0.00
--------------------------------------------------------------------------------


  Born effective charge tensors : 

-------------------------------------------------------------------------------
  Atom             x           y             z
-------------------------------------------------------------------------------
    1 Mg    x       2.3083      0.0000      0.0000
            y       0.0000      2.3083      0.0000
            z       0.0000      0.0000      2.3083
-------------------------------------------------------------------------------
    2 Mg    x       2.3083      0.0000      0.0000
            y       0.0000      2.3083      0.0000
            z       0.0000      0.0000      2.3083
-------------------------------------------------------------------------------
    3 Mg    x       2.3083      0.0000      0.0000
            y       0.0000      2.3083      0.0000
            z       0.0000      0.0000      2.3083
-------------------------------------------------------------------------------
    4 Mg    x       2.3083      0.0000      0.0000
            y       0.0000      2.3083      0.0000
            z       0.0000      0.0000      2.3083
-------------------------------------------------------------------------------
    5 O     x      -2.3083     -0.0000     -0.0000
            y      -0.0000     -2.3083      0.0000
            z      -0.0000      0.0000     -2.3083
-------------------------------------------------------------------------------
    6 O     x      -2.3083     -0.0000     -0.0000
            y      -0.0000     -2.3083     -0.0000
            z      -0.0000     -0.0000     -2.3083
-------------------------------------------------------------------------------
    7 O     x      -2.3083     -0.0000     -0.0000
            y      -0.0000     -2.3083      0.0000
            z      -0.0000      0.0000     -2.3083
-------------------------------------------------------------------------------
    8 O     x      -2.3083     -0.0000     -0.0000
            y      -0.0000     -2.3083     -0.0000
            z      -0.0000     -0.0000     -2.3083
-------------------------------------------------------------------------------




  Elastic Constant Matrix: (Units=GPa)

-------------------------------------------------------------------------------
  Indices      1         2         3         4         5         6    
-------------------------------------------------------------------------------
       1    415.8280  238.6827  238.6821    0.0000   -0.0000   -0.0000
       2    238.6827  415.8280  238.6821    0.0000    0.0000   -0.0000
       3    238.6821  238.6821  415.8260    0.0000   -0.0000    0.0000
       4      0.0000    0.0000    0.0000  238.6826   -0.0000    0.0000
       5     -0.0000    0.0000   -0.0000   -0.0000  238.6826    0.0000
       6     -0.0000   -0.0000    0.0000    0.0000    0.0000  238.6831
-------------------------------------------------------------------------------


  Elastic Compliance Matrix: (Units=1/GPa)

-------------------------------------------------------------------------------
  Indices      1         2         3         4         5         6    
-------------------------------------------------------------------------------
       1    0.004137 -0.001509 -0.001509  0.000000  0.000000 -0.000000
       2   -0.001509  0.004137 -0.001509 -0.000000 -0.000000  0.000000
       3   -0.001509 -0.001509  0.004137 -0.000000  0.000000 -0.000000
       4    0.000000 -0.000000 -0.000000  0.004190  0.000000 -0.000000
       5    0.000000 -0.000000  0.000000  0.000000  0.004190 -0.000000
       6   -0.000000  0.000000 -0.000000 -0.000000 -0.000000  0.004190
-------------------------------------------------------------------------------

  Mechanical properties :

-------------------------------------------------------------------------------
  Convention :                    Reuss         Voigt         Hill
-------------------------------------------------------------------------------
  Bulk  Modulus (GPa)     =     297.73065     297.73065     297.73065
  Shear Modulus (GPa)     =     142.25013     178.63866     160.44440
-------------------------------------------------------------------------------
  Velocity S-wave (km/s)  =       5.56435       6.23557       5.90950
  Velocity P-wave (km/s)  =      10.29983      10.80032      10.55304
-------------------------------------------------------------------------------
  Compressibility (1/GPa) =    0.00335874
-------------------------------------------------------------------------------
  Stress axis :                     x             y             z
-------------------------------------------------------------------------------
  Youngs Moduli (GPa)     =     241.74556     241.74556     241.74427
-------------------------------------------------------------------------------
  Poissons Ratio (x)      =                     0.36467       0.36467
  Poissons Ratio (y)      =       0.36467                     0.36467
  Poissons Ratio (z)      =       0.36467       0.36467
-------------------------------------------------------------------------------


  Piezoelectric Strain Matrix: (Units=C/m**2)

-------------------------------------------------------------------------------
  Indices      1         2         3         4         5         6    
-------------------------------------------------------------------------------
       x    -0.00000  -0.00000  -0.00000   0.00000   0.00000   0.00000
       y    -0.00000   0.00000  -0.00000   0.00000   0.00000  -0.00000
       z    -0.00000  -0.00000  -0.00000  -0.00000  -0.00000   0.00000
-------------------------------------------------------------------------------


  Piezoelectric Stress Matrix: (Units=10**-11 C/N)

-------------------------------------------------------------------------------
  Indices      1         2         3         4         5         6    
-------------------------------------------------------------------------------
       x    -0.00000   0.00000   0.00000   0.00000   0.00000   0.00000
       y    -0.00000   0.00000  -0.00000   0.00000   0.00000  -0.00000
       z     0.00000   0.00000  -0.00000  -0.00000  -0.00000   0.00000
-------------------------------------------------------------------------------


  Static dielectric constant tensor : 

-------------------------------------------------------------------------------
              x         y         z
-------------------------------------------------------------------------------
       x    65.58786   0.00000   0.00000
       y     0.00000  65.58786   0.00000
       z     0.00000   0.00000  65.58844
--------------------------------------------------------------------------------

  High frequency dielectric constant tensor : 

-------------------------------------------------------------------------------
              x         y         z
-------------------------------------------------------------------------------
       x     2.80797   0.00000   0.00000
       y     0.00000   2.80797   0.00000
       z     0.00000   0.00000   2.80797
-------------------------------------------------------------------------------

  Static refractive indices : 

-------------------------------------------------------------------------------
    1 =    8.09863      2 =    8.09863      3 =    8.09867
-------------------------------------------------------------------------------

  High frequency refractive indices : 

-------------------------------------------------------------------------------
    1 =    1.67570      2 =    1.67570      3 =    1.67570
-------------------------------------------------------------------------------


  Time to end of optimisation =       0.0484 seconds


  Peak dynamic memory used =       1.89 MB 


  Timing analysis for GULP :

--------------------------------------------------------------------------------
  Task / Subroutine                                          Time (Seconds)
--------------------------------------------------------------------------------
  Calculation of reciprocal space energy and derivatives          0.0038
  Calculation of real space energy and derivatives                0.0399
  Calculation of matrix inversion                                 0.0002
--------------------------------------------------------------------------------
  Total CPU time                                                  0.0484
--------------------------------------------------------------------------------


  Job Finished at 11:12.34 20th September  2023                               

