********************************************************************************
*                       GENERAL UTILITY LATTICE PROGRAM                        *
*                                 Julian Gale                                  *
*                       Curtin Institute for Computation                       *
*                    School of Molecular and Life Sciences                     *
*                    Curtin University, Western Australia                      *
********************************************************************************
* Version = 5.2.0 * Last modified =  10th September 2020                       *
********************************************************************************
*  optimise     - perform optimisation run                                     *
*  conp         - constant pressure calculation                                *
*  property     - calculate properties for final geometry                      *
*  compare      - compare initial and final structures                         *
********************************************************************************

  Job Started  at 17:36.30 19th September  2023                               

  Number of CPUs =     1

  Host name      = b001                                    


  Total number of configurations input =      1

********************************************************************************
*  Input for Configuration =   1                                               *
********************************************************************************

  Formula = Mg4O4                                                       

  Number of irreducible atoms/shells =      12


  Total number atoms/shells =      12

  Dimensionality = 3               :  Bulk   



  Cartesian lattice vectors (Angstroms) :

        4.211200    0.000000    0.000000
        0.000000    4.211200    0.000000
        0.000000    0.000000    5.312000

  Cell parameters (Angstroms/Degrees):

  a =       4.2112    alpha =  90.0000
  b =       4.2112    beta  =  90.0000
  c =       5.3120    gamma =  90.0000

  Initial cell volume =          94.204099 Angs**3

  Temperature of configuration =   0.00     K 

  Pressure of configuration =         0.000 GPa 

  Fractional coordinates of asymmetric unit :

--------------------------------------------------------------------------------
   No.  Atomic       x           y          z         Charge      Occupancy
        Label      (Frac)      (Frac)     (Frac)        (e)         (Frac)  
--------------------------------------------------------------------------------
      1 Mg    c    0.000000    0.000000    0.000000     2.00000    1.000000    
      2 Mg    c    0.500000 *  0.500000 *  0.000000 *   2.00000    1.000000    
      3 Mg    c    0.500000 *  0.000000 *  0.500000 *   2.00000    1.000000    
      4 Mg    c    0.000000 *  0.500000 *  0.500000 *   2.00000    1.000000    
      5 O     c    0.500000 *  0.000000 *  0.000000 *   0.89502    1.000000    
      6 O     c    0.000000 *  0.500000 *  0.000000 *   0.89502    1.000000    
      7 O     c    0.000000 *  0.000000 *  0.500000 *   0.89502    1.000000    
      8 O     c    0.500000 *  0.500000 *  0.500000 *   0.89502    1.000000    
      9 O     s    0.500000 *  0.000000 *  0.000000 *  -2.89502    1.000000    
     10 O     s    0.000000 *  0.500000 *  0.000000 *  -2.89502    1.000000    
     11 O     s    0.000000 *  0.000000 *  0.500000 *  -2.89502    1.000000    
     12 O     s    0.500000 *  0.500000 *  0.500000 *  -2.89502    1.000000    
--------------------------------------------------------------------------------



********************************************************************************
*  General input information                                                   *
********************************************************************************

  Species output for all configurations : 

--------------------------------------------------------------------------------
  Species    Type    Atomic    Atomic    Charge       Radii (Angs)     Library
                     Number     Mass       (e)     Cova   Ionic  VDW   Symbol
--------------------------------------------------------------------------------
    Mg       Core       12      24.31   2.000000   1.100  0.000  1.640          
    O        Core        8      16.00   0.895020   0.730  0.000  1.360          
    O        Shell       8       0.00  -2.895020   0.730  0.000  1.360          
--------------------------------------------------------------------------------


  Lattice summation method               =    Ewald          (3-D)
                                         =    Parry          (2-D)
                                         =    Saunders et al (1-D)
  Accuracy factor for lattice sums       =   12.000


  Analytic derivatives to be used

  Time limit = Infinity

  Maximum range for interatomic potentials =    100000.000000 Angstroms

  General interatomic potentials :

--------------------------------------------------------------------------------
Atom  Types   Potential      Parameter       Value         Units   Cutoffs(Ang)
  1     2                                                            Min /  Max 
--------------------------------------------------------------------------------
O    s O    s Buckingham    Buckingham A     22764.000    eV        0.000 12.000
                            Buckingham rho  0.14900000    Ang       
                            Buckingham C     6.9700000    eV*Ang^6  
--------------------------------------------------------------------------------
Mg   c O    s Buckingham    Buckingham A     941.50000    eV        0.000 12.000
                            Buckingham rho  0.29453000    Ang       
                            Buckingham C     0.0000000    eV*Ang^6  
--------------------------------------------------------------------------------
O    c O    s Spring (c-s)  Spring k 2       74.920000    eV*Ang^-2 0.000  0.800
                            Spring k 4       0.0000000    eV*Ang^-4 
--------------------------------------------------------------------------------

********************************************************************************
*  Output for configuration   1                                                *
********************************************************************************


  Components of energy : 

--------------------------------------------------------------------------------
  Interatomic potentials     =          12.60746396 eV    
  Monopole - monopole (real) =         -57.32417943 eV    
  Monopole - monopole (recip)=        -123.99524650 eV    
  Monopole - monopole (total)=        -181.31942593 eV    
--------------------------------------------------------------------------------
  Total lattice energy       =        -168.71196196 eV    
--------------------------------------------------------------------------------
  Total lattice energy       =          -16278.1253 kJ/(mole unit cells)
--------------------------------------------------------------------------------


  Number of variables =       39

  Maximum number of calculations  =          1000
  Maximum Hessian update interval =            10
  Maximum step size               =   1.000000000
  Maximum parameter tolerance     =   0.000010000
  Maximum function  tolerance     =   0.000010000
  Maximum gradient  tolerance     =   0.000010000
  Maximum gradient  component     =   0.010000000

  Symmetry not applied to optimisation

  Cell parameters to be optimised using strains

  Newton-Raphson optimiser to be used

  BFGS hessian update to be used

  Lower half triangular hessian to be used

  Start of bulk optimisation :

  Cycle:      0 Energy:      -168.711962  Gnorm:      1.373491  CPU:    0.006
  ** Hessian calculated **
  Cycle:      1 Energy:      -174.867065  Gnorm:      0.340276  CPU:    0.009
  ** Hessian calculated **
  Cycle:      2 Energy:      -176.244880  Gnorm:      0.122433  CPU:    0.017
  ** Hessian calculated **
  Cycle:      3 Energy:      -176.470514  Gnorm:      0.048502  CPU:    0.022
  Cycle:      4 Energy:      -176.485578  Gnorm:      0.032081  CPU:    0.026
  Cycle:      5 Energy:      -176.487963  Gnorm:      0.002580  CPU:    0.029
  Cycle:      6 Energy:      -176.487979  Gnorm:      0.000002  CPU:    0.032


  **** Optimisation achieved ****


  Final energy =    -176.48797901 eV
  Final Gnorm  =       0.00000021

  Components of energy : 

--------------------------------------------------------------------------------
  Interatomic potentials     =          31.21219632 eV    
  Monopole - monopole (real) =         -62.29986985 eV    
  Monopole - monopole (recip)=        -145.40030548 eV    
  Monopole - monopole (total)=        -207.70017533 eV    
--------------------------------------------------------------------------------
  Total lattice energy       =        -176.48797901 eV    
--------------------------------------------------------------------------------
  Total lattice energy       =          -17028.3921 kJ/(mole unit cells)
--------------------------------------------------------------------------------

  Final fractional coordinates of atoms :

--------------------------------------------------------------------------------
   No.  Atomic        x           y          z          Radius
        Label       (Frac)      (Frac)     (Frac)       (Angs) 
--------------------------------------------------------------------------------
     1  Mg    c     0.000000    0.000000    0.000000    0.000000
     2  Mg    c     0.500000    0.500000    0.000000    0.000000
     3  Mg    c     0.500000    0.000000    0.500000    0.000000
     4  Mg    c     0.000000    0.500000    0.500000    0.000000
     5  O     c     0.500000    0.000000    1.000000    0.000000
     6  O     c     0.000000    0.500000    0.000000    0.000000
     7  O     c     0.000000    1.000000    0.500000    0.000000
     8  O     c     0.500000    0.500000    0.500000    0.000000
     9  O     s     0.500000    0.000000    1.000000    0.000000
    10  O     s     0.000000    0.500000    0.000000    0.000000
    11  O     s     0.000000    1.000000    0.500000    0.000000
    12  O     s     0.500000    0.500000    0.500000    0.000000
--------------------------------------------------------------------------------

  Final Cartesian lattice vectors (Angstroms) :

        3.877051   -0.000000   -0.000000
       -0.000000    3.877051   -0.000000
        0.000000   -0.000000    3.877051


  Final cell parameters and derivatives :

--------------------------------------------------------------------------------
       a            3.877051 Angstrom     dE/de1(xx)    -0.000005 eV/strain
       b            3.877051 Angstrom     dE/de2(yy)    -0.000005 eV/strain
       c            3.877051 Angstrom     dE/de3(zz)    -0.000005 eV/strain
       alpha       90.000000 Degrees      dE/de4(yz)    -0.000000 eV/strain
       beta        90.000000 Degrees      dE/de5(xz)     0.000000 eV/strain
       gamma       90.000000 Degrees      dE/de6(xy)    -0.000000 eV/strain
--------------------------------------------------------------------------------

  Primitive cell volume =            58.278005 Angs**3

  Density of cell =      4.594350 g/cm**3

  Non-primitive cell volume =            58.278005 Angs**3


  Final internal derivatives :

--------------------------------------------------------------------------------
   No.  Atomic          a             b             c           Radius
        Label          (eV)          (eV)          (eV)        (eV/Angs)
--------------------------------------------------------------------------------
      1 Mg    c       0.000000      0.000000      0.000000      0.000000
      2 Mg    c      -0.000000      0.000000     -0.000000      0.000000
      3 Mg    c      -0.000000     -0.000000     -0.000000      0.000000
      4 Mg    c       0.000000     -0.000000      0.000000      0.000000
      5 O     c       0.000000      0.000000     -0.000000      0.000000
      6 O     c       0.000000     -0.000000     -0.000000      0.000000
      7 O     c      -0.000000      0.000000     -0.000000      0.000000
      8 O     c       0.000000     -0.000000     -0.000000      0.000000
      9 O     s      -0.000000      0.000000     -0.000000      0.000000
     10 O     s       0.000000     -0.000000     -0.000000      0.000000
     11 O     s       0.000000      0.000000      0.000000      0.000000
     12 O     s      -0.000000     -0.000000      0.000000      0.000000
--------------------------------------------------------------------------------
  Maximum abs         0.000000      0.000000      0.000000      0.000000
--------------------------------------------------------------------------------

  Comparison of initial and final structures : 

--------------------------------------------------------------------------------
  Parameter   Initial value   Final value   Difference    Units      Percent
--------------------------------------------------------------------------------
    Volume        94.204099     58.278005   -35.926095    Angs**3    -38.14
    a              4.211200      3.877051    -0.334149    Angstroms   -7.93
    b              4.211200      3.877051    -0.334149    Angstroms   -7.93
    c              5.312000      3.877051    -1.434949    Angstroms  -27.01
    alpha         90.000000     90.000000     0.000000    Degrees      0.00
    beta          90.000000     90.000000     0.000000    Degrees      0.00
    gamma         90.000000     90.000000     0.000000    Degrees      0.00
      1 x          0.000000      0.000000     0.000000    Fractional   0.00
      1 y          0.000000      0.000000     0.000000    Fractional   0.00
      1 z          0.000000      0.000000     0.000000    Fractional   0.00
      2 x          0.500000      0.500000     0.000000    Fractional   0.00
      2 y          0.500000      0.500000     0.000000    Fractional   0.00
      2 z          0.000000      0.000000     0.000000    Fractional   0.00
      3 x          0.500000      0.500000     0.000000    Fractional   0.00
      3 y          0.000000      0.000000     0.000000    Fractional   0.00
      3 z          0.500000      0.500000     0.000000    Fractional   0.00
      4 x          0.000000      0.000000     0.000000    Fractional   0.00
      4 y          0.500000      0.500000     0.000000    Fractional   0.00
      4 z          0.500000      0.500000     0.000000    Fractional   0.00
      5 x          0.500000      0.500000     0.000000    Fractional   0.00
      5 y          0.000000      0.000000     0.000000    Fractional   0.00
      5 z          0.000000      1.000000     1.000000    Fractional   0.00
      6 x          0.000000      0.000000     0.000000    Fractional   0.00
      6 y          0.500000      0.500000     0.000000    Fractional   0.00
      6 z          0.000000      0.000000     0.000000    Fractional   0.00
      7 x          0.000000      0.000000     0.000000    Fractional   0.00
      7 y          0.000000      1.000000     1.000000    Fractional   0.00
      7 z          0.500000      0.500000     0.000000    Fractional   0.00
      8 x          0.500000      0.500000     0.000000    Fractional   0.00
      8 y          0.500000      0.500000     0.000000    Fractional   0.00
      8 z          0.500000      0.500000     0.000000    Fractional   0.00
      9 x          0.500000      0.500000     0.000000    Fractional   0.00
      9 y          0.000000      0.000000     0.000000    Fractional   0.00
      9 z          0.000000      1.000000     1.000000    Fractional   0.00
     10 x          0.000000      0.000000     0.000000    Fractional   0.00
     10 y          0.500000      0.500000     0.000000    Fractional   0.00
     10 z          0.000000      0.000000     0.000000    Fractional   0.00
     11 x          0.000000      0.000000     0.000000    Fractional   0.00
     11 y          0.000000      1.000000     1.000000    Fractional   0.00
     11 z          0.500000      0.500000     0.000000    Fractional   0.00
     12 x          0.500000      0.500000     0.000000    Fractional   0.00
     12 y          0.500000      0.500000     0.000000    Fractional   0.00
     12 z          0.500000      0.500000     0.000000    Fractional   0.00
--------------------------------------------------------------------------------


  Born effective charge tensors : 

-------------------------------------------------------------------------------
  Atom             x           y             z
-------------------------------------------------------------------------------
    1 Mg    x       2.1290     -0.0000     -0.0000
            y      -0.0000      2.1290     -0.0000
            z      -0.0000     -0.0000      2.1290
-------------------------------------------------------------------------------
    2 Mg    x       2.1290     -0.0000      0.0000
            y      -0.0000      2.1290     -0.0000
            z       0.0000     -0.0000      2.1290
-------------------------------------------------------------------------------
    3 Mg    x       2.1290     -0.0000      0.0000
            y      -0.0000      2.1290     -0.0000
            z       0.0000     -0.0000      2.1290
-------------------------------------------------------------------------------
    4 Mg    x       2.1290     -0.0000      0.0000
            y      -0.0000      2.1290     -0.0000
            z       0.0000     -0.0000      2.1290
-------------------------------------------------------------------------------
    5 O     x      -2.1290      0.0000     -0.0000
            y       0.0000     -2.1290      0.0000
            z      -0.0000      0.0000     -2.1290
-------------------------------------------------------------------------------
    6 O     x      -2.1290     -0.0000      0.0000
            y      -0.0000     -2.1290      0.0000
            z       0.0000      0.0000     -2.1290
-------------------------------------------------------------------------------
    7 O     x      -2.1290      0.0000      0.0000
            y       0.0000     -2.1290      0.0000
            z       0.0000      0.0000     -2.1290
-------------------------------------------------------------------------------
    8 O     x      -2.1290      0.0000     -0.0000
            y       0.0000     -2.1290      0.0000
            z      -0.0000      0.0000     -2.1290
-------------------------------------------------------------------------------




  Elastic Constant Matrix: (Units=GPa)

-------------------------------------------------------------------------------
  Indices      1         2         3         4         5         6    
-------------------------------------------------------------------------------
       1    415.8301  238.6829  238.6829   -0.0000   -0.0000   -0.0000
       2    238.6829  415.8301  238.6829   -0.0000    0.0000   -0.0000
       3    238.6829  238.6829  415.8301   -0.0000   -0.0000   -0.0000
       4     -0.0000   -0.0000   -0.0000  238.6829   -0.0000    0.0000
       5     -0.0000    0.0000   -0.0000   -0.0000  238.6829   -0.0000
       6     -0.0000   -0.0000   -0.0000    0.0000   -0.0000  238.6829
-------------------------------------------------------------------------------


  Elastic Compliance Matrix: (Units=1/GPa)

-------------------------------------------------------------------------------
  Indices      1         2         3         4         5         6    
-------------------------------------------------------------------------------
       1    0.004137 -0.001508 -0.001508 -0.000000  0.000000  0.000000
       2   -0.001508  0.004137 -0.001508  0.000000 -0.000000  0.000000
       3   -0.001508 -0.001508  0.004137  0.000000  0.000000  0.000000
       4   -0.000000  0.000000  0.000000  0.004190  0.000000 -0.000000
       5    0.000000 -0.000000  0.000000  0.000000  0.004190  0.000000
       6    0.000000  0.000000  0.000000 -0.000000  0.000000  0.004190
-------------------------------------------------------------------------------

  Mechanical properties :

-------------------------------------------------------------------------------
  Convention :                    Reuss         Voigt         Hill
-------------------------------------------------------------------------------
  Bulk  Modulus (GPa)     =     297.73194     297.73194     297.73194
  Shear Modulus (GPa)     =     142.25129     178.63916     160.44522
-------------------------------------------------------------------------------
  Velocity S-wave (km/s)  =       5.56437       6.23557       5.90951
  Velocity P-wave (km/s)  =      10.29985      10.80033      10.55306
-------------------------------------------------------------------------------
  Compressibility (1/GPa) =    0.00335873
-------------------------------------------------------------------------------
  Stress axis :                     x             y             z
-------------------------------------------------------------------------------
  Youngs Moduli (GPa)     =     241.74796     241.74796     241.74795
-------------------------------------------------------------------------------
  Poissons Ratio (x)      =                     0.36467       0.36467
  Poissons Ratio (y)      =       0.36467                     0.36467
  Poissons Ratio (z)      =       0.36467       0.36467
-------------------------------------------------------------------------------


  Piezoelectric Strain Matrix: (Units=C/m**2)

-------------------------------------------------------------------------------
  Indices      1         2         3         4         5         6    
-------------------------------------------------------------------------------
       x    -0.00000   0.00000  -0.00000  -0.00000  -0.00000   0.00000
       y    -0.00000   0.00000  -0.00000  -0.00000  -0.00000   0.00000
       z    -0.00000  -0.00000   0.00000  -0.00000   0.00000  -0.00000
-------------------------------------------------------------------------------


  Piezoelectric Stress Matrix: (Units=10**-11 C/N)

-------------------------------------------------------------------------------
  Indices      1         2         3         4         5         6    
-------------------------------------------------------------------------------
       x    -0.00000   0.00000  -0.00000  -0.00000  -0.00000   0.00000
       y    -0.00000   0.00000  -0.00000  -0.00000  -0.00000   0.00000
       z    -0.00000  -0.00000   0.00000  -0.00000   0.00000  -0.00000
-------------------------------------------------------------------------------


  Static dielectric constant tensor : 

-------------------------------------------------------------------------------
              x         y         z
-------------------------------------------------------------------------------
       x    15.06560  -0.00000   0.00000
       y    -0.00000  15.06560  -0.00000
       z     0.00000  -0.00000  15.06560
--------------------------------------------------------------------------------

  High frequency dielectric constant tensor : 

-------------------------------------------------------------------------------
              x         y         z
-------------------------------------------------------------------------------
       x     2.69383  -0.00000   0.00000
       y    -0.00000   2.69383  -0.00000
       z     0.00000  -0.00000   2.69383
-------------------------------------------------------------------------------

  Static refractive indices : 

-------------------------------------------------------------------------------
    1 =    3.88144      2 =    3.88144      3 =    3.88144
-------------------------------------------------------------------------------

  High frequency refractive indices : 

-------------------------------------------------------------------------------
    1 =    1.64129      2 =    1.64129      3 =    1.64129
-------------------------------------------------------------------------------


  Time to end of optimisation =       0.0409 seconds


  Peak dynamic memory used =       1.84 MB 


  Timing analysis for GULP :

--------------------------------------------------------------------------------
  Task / Subroutine                                          Time (Seconds)
--------------------------------------------------------------------------------
  Calculation of reciprocal space energy and derivatives          0.0033
  Calculation of real space energy and derivatives                0.0323
  Calculation of matrix inversion                                 0.0002
--------------------------------------------------------------------------------
  Total CPU time                                                  0.0409
--------------------------------------------------------------------------------


  Job Finished at 17:36.30 19th September  2023                               

